   JOB DONE.
=------------------------------------------------------------------------------=

     Program PWSCF v.5.0.1 starts on 11Nov2012 at  7:58:55 

     This program is part of the open-source Quantum ESPRESSO suite
     for quantum simulation of materials; please cite
         "P. Giannozzi et al., J. Phys.:Condens. Matter 21 395502 (2009);
          URL http://www.quantum-espresso.org", 
     in publications or presentations arising from this work. More details at
     http://www.quantum-espresso.org/quote.php

     Parallel version (MPI), running on     2 processors
     R & G space division:  proc/pool =    2

     Current dimensions of program PWSCF are:
     Max number of different atomic species (ntypx) = 10
     Max number of k-points (npk) =  40000
     Max angular momentum in pseudopotentials (lmaxx) =  3
     Reading input from CoLaO_U0_a-10.in
               file Co.pbe-nd-rrkjus.UPF: wavefunction(s)  4S 3D renormalized
               file O.pbe-rrkjus.UPF: wavefunction(s)  2S renormalized
               file O.pbe-rrkjus.UPF: wavefunction(s)  2S renormalized

     Subspace diagonalization in iterative solution of the eigenvalue problem:
     a serial algorithm will be used


     Parallelization info
     --------------------
     sticks:   dense  smooth     PW     G-vecs:    dense   smooth      PW
     Min        1112     444    131                34808     8786    1448
     Max        1113     445    132                34809     8787    1449
     Sum        2225     889    263                69617    17573    2897


     Title: 
     GGA + U, U = 1D-40, alpha = -0.100                                         


     bravais-lattice index     =            5
     lattice parameter (alat)  =      10.3292  a.u.
     unit-cell volume          =     793.0599 (a.u.)^3
     number of atoms/cell      =           10
     number of atomic types    =            4
     number of electrons       =        76.00
     number of Kohn-Sham states=           46
     kinetic-energy cutoff     =      30.0000  Ry
     charge density cutoff     =     300.0000  Ry
     convergence threshold     =      1.0E-08
     mixing beta               =       0.2000
     number of iterations used =            8  plain     mixing
     Exchange-correlation      =  SLA  PW   PBE  PBE ( 1 4 3 4 0)
     EXX-fraction              =        0.00

     celldm(1)=  10.329242  celldm(2)=   0.000000  celldm(3)=   0.000000
     celldm(4)=   0.488100  celldm(5)=   0.000000  celldm(6)=   0.000000

     crystal axes: (cart. coord. in units of alat)
               a(1) = (   0.505915  -0.292090   0.811624 )  
               a(2) = (   0.000000   0.584180   0.811624 )  
               a(3) = (  -0.505915  -0.292090   0.811624 )  

     reciprocal axes: (cart. coord. in units 2 pi/alat)
               b(1) = (  0.988308 -0.570600  0.410699 )  
               b(2) = (  0.000000  1.141200  0.410699 )  
               b(3) = ( -0.988308 -0.570600  0.410699 )  


     PseudoPot. # 1 for Co read from file:
     /home/mcurnan/dft-course/Project1/example_LaCoO3/Co.pbe-nd-rrkjus.UPF
     MD5 check sum: 3e47a84addf5e975e0edeaeee2a73f59
     Pseudo is Ultrasoft + core correction, Zval =  9.0
     Generated by new atomic code, or converted to UPF format
     Using radial grid of  961 points,  6 beta functions with: 
                l(1) =   0
                l(2) =   0
                l(3) =   1
                l(4) =   1
                l(5) =   2
                l(6) =   2
     Q(r) pseudized with 0 coefficients 


     PseudoPot. # 2 for La read from file:
     /home/mcurnan/dft-course/Project1/example_LaCoO3/La.pbe-nsp-van.UPF
     MD5 check sum: b2f11743f52dde65f77d1302becd7929
     Pseudo is Ultrasoft + core correction, Zval = 11.0
     Generated by new atomic code, or converted to UPF format
     Using radial grid of  907 points,  6 beta functions with: 
                l(1) =   0
                l(2) =   0
                l(3) =   1
                l(4) =   1
                l(5) =   2
                l(6) =   2
     Q(r) pseudized with  6 coefficients,  rinner =    1.200   1.200   1.200
                                                       1.200   1.200

     PseudoPot. # 3 for O  read from file:
     /home/mcurnan/dft-course/Project1/example_LaCoO3/O.pbe-rrkjus.UPF
     MD5 check sum: 390ba29e75625707450f3bd3f0eb6be9
     Pseudo is Ultrasoft, Zval =  6.0
     Generated by new atomic code, or converted to UPF format
     Using radial grid of 1269 points,  4 beta functions with: 
                l(1) =   0
                l(2) =   0
                l(3) =   1
                l(4) =   1
     Q(r) pseudized with 0 coefficients 


     PseudoPot. # 4 for O  read from file:
     /home/mcurnan/dft-course/Project1/example_LaCoO3/O.pbe-rrkjus.UPF
     MD5 check sum: 390ba29e75625707450f3bd3f0eb6be9
     Pseudo is Ultrasoft, Zval =  6.0
     Generated by new atomic code, or converted to UPF format
     Using radial grid of 1269 points,  4 beta functions with: 
                l(1) =   0
                l(2) =   0
                l(3) =   1
                l(4) =   1
     Q(r) pseudized with 0 coefficients 


     atomic species   valence    mass     pseudopotential
        Co1            9.00     1.00000     Co( 1.00)
        La1           11.00     1.00000     La( 1.00)
        O1             6.00     1.00000     O ( 1.00)
        O2             6.00     1.00000     O ( 1.00)
 -----
     simplified LDA+U calculation, Hubbard_lmax = 2
     atomic species  L   Hubbard U  Hubbard alpha
        Co1          2    0.000000    0.000000
        La1          2    0.000000    0.000000
        O1           1    0.000000   -0.100000
        O2           1    0.000000    0.000000
 -----

     No symmetry found


                                    s                        frac. trans.

      isym =  1     identity                                     

 cryst.   s( 1) = (     1          0          0      )
                  (     0          1          0      )
                  (     0          0          1      )

 cart.    s( 1) = (  1.0000000  0.0000000  0.0000000 )
                  (  0.0000000  1.0000000  0.0000000 )
                  (  0.0000000  0.0000000  1.0000000 )


     point group C_1 (1)    
     there are  1 classes
     the character table:

       E    
A      1.00

     the symmetry operations in each class:
     E        1

   Cartesian axes

     site n.     atom                  positions (alat units)
         1           Co1 tau(   1) = (   0.2228050  -0.1992639   1.0141240  )
         2           Co1 tau(   2) = (  -0.2831100   0.0928263   1.4199360  )
         3           La1 tau(   3) = (  -0.2831100   0.0928263   0.8112181  )
         4           La1 tau(   4) = (   0.2228050   0.3849164   1.2170300  )
         5           O1  tau(   5) = (   0.0000000   0.0000000   0.0000000  )
         6           O2  tau(   6) = (   0.0008601   0.1861491   1.6232478  )
         7           O2  tau(   7) = (   0.1616398   0.0923297   0.8116239  )
         8           O2  tau(   8) = (  -0.0603051  -0.1064377   1.2166242  )
         9           O2  tau(   9) = (   0.4447499  -0.0004966   1.2166242  )
        10           O2  tau(  10) = (  -0.2219449   0.3854130   1.2166242  )

   Crystallographic axes

     site n.     atom                  positions (cryst. coord.)
         1           Co1 tau(   1) = (  0.7504000  0.1891000  0.3100000  )
         2           Co1 tau(   2) = (  0.2504000  0.6891000  0.8100000  )
         3           La1 tau(   3) = (  0.0004000  0.4391000  0.5600000  )
         4           La1 tau(   4) = (  0.5004000  0.9391000  0.0600000  )
         5           O1  tau(   5) = (  0.0000000  0.0000000  0.0000000  )
         6           O2  tau(   6) = (  0.5613000  0.8791000  0.5596000  )
         7           O2  tau(   7) = (  0.4404000  0.4387000  0.1209000  )
         8           O2  tau(   8) = (  0.5008000  0.3782000  0.6200000  )
         9           O2  tau(   9) = (  0.9395000  0.4991000  0.0604000  )
        10           O2  tau(  10) = (  0.0604000  0.9395000  0.4991000  )

     number of k points=    36  gaussian smearing, width (Ry)=  0.0300
                       cart. coord. in units 2pi/alat
        k(    1) = (   0.0000000   0.0000000   0.0000000), wk =   0.0312500
        k(    2) = (  -0.2470771  -0.1426500   0.1026748), wk =   0.0625000
        k(    3) = (   0.4941541   0.2853000  -0.2053496), wk =   0.0312500
        k(    4) = (  -0.2470771   0.1426500   0.2053496), wk =   0.0625000
        k(    5) = (   0.4941541   0.5706001  -0.1026748), wk =   0.0625000
        k(    6) = (   0.2470771   0.4279500   0.0000000), wk =   0.0625000
        k(    7) = (   0.4941541  -0.2853000  -0.4106993), wk =   0.0312500
        k(    8) = (   0.0000000   0.0000000   0.3080244), wk =   0.0625000
        k(    9) = (   0.7412312   0.4279500   0.0000000), wk =   0.0625000
        k(   10) = (   0.4941541   0.2853000   0.1026748), wk =   0.0625000
        k(   11) = (   0.7412312  -0.4279500  -0.3080244), wk =   0.0625000
        k(   12) = (   0.4941541  -0.5706001  -0.2053496), wk =   0.0625000
        k(   13) = (   0.0000000   0.0000000  -0.6160489), wk =   0.0312500
        k(   14) = (  -0.2470771   0.1426500  -0.1026748), wk =   0.0625000
        k(   15) = (   0.0000000   0.2853000   0.1026748), wk =   0.0625000
        k(   16) = (   0.4941541  -0.2853000   0.2053496), wk =   0.0312500
        k(   17) = (   0.0000000  -0.5706001  -0.2053496), wk =   0.0312500
        k(   18) = (  -0.2470771  -0.1426500  -0.2053496), wk =   0.0625000
        k(   19) = (   0.0000000  -0.2853000   0.2053496), wk =   0.0625000
        k(   20) = (   0.4941541  -0.5706001   0.1026748), wk =   0.0625000
        k(   21) = (  -0.7412312   0.1426500  -0.1026748), wk =   0.0625000
        k(   22) = (   0.2470771  -0.7132501  -0.1026748), wk =   0.0625000
        k(   23) = (  -0.7412312  -0.1426500   0.1026748), wk =   0.0625000
        k(   24) = (   0.2470771   0.7132501   0.1026748), wk =   0.0625000
        k(   25) = (   0.2470771  -0.4279500   0.0000000), wk =   0.0625000
        k(   26) = (  -0.4941541   0.0000000   0.0000000), wk =   0.0625000
        k(   27) = (   0.4941541   0.2853000   0.4106993), wk =   0.0312500
        k(   28) = (   0.0000000   0.5706001  -0.4106993), wk =   0.0312500
        k(   29) = (   0.7412312  -0.4279500   0.0000000), wk =   0.0625000
        k(   30) = (   0.0000000  -0.8559001   0.0000000), wk =   0.0625000
        k(   31) = (   0.4941541  -0.2853000  -0.1026748), wk =   0.0625000
        k(   32) = (   0.0000000  -0.5706001   0.1026748), wk =   0.0625000
        k(   33) = (   0.7412312   0.4279500   0.3080244), wk =   0.0625000
        k(   34) = (   0.0000000   0.8559001  -0.3080244), wk =   0.0625000
        k(   35) = (   0.2470771   0.7132501  -0.2053496), wk =   0.0625000
        k(   36) = (  -0.7412312  -0.1426500  -0.2053496), wk =   0.0625000

                       cryst. coord.
        k(    1) = (   0.0000000   0.0000000   0.0000000), wk =   0.0312500
        k(    2) = (   0.0000000   0.0000000   0.2500000), wk =   0.0625000
        k(    3) = (   0.0000000   0.0000000  -0.5000000), wk =   0.0312500
        k(    4) = (   0.0000000   0.2500000   0.2500000), wk =   0.0625000
        k(    5) = (   0.0000000   0.2500000  -0.5000000), wk =   0.0625000
        k(    6) = (   0.0000000   0.2500000  -0.2500000), wk =   0.0625000
        k(    7) = (   0.0000000  -0.5000000  -0.5000000), wk =   0.0312500
        k(    8) = (   0.2500000   0.2500000   0.2500000), wk =   0.0625000
        k(    9) = (   0.2500000   0.2500000  -0.5000000), wk =   0.0625000
        k(   10) = (   0.2500000   0.2500000  -0.2500000), wk =   0.0625000
        k(   11) = (   0.2500000  -0.5000000  -0.5000000), wk =   0.0625000
        k(   12) = (   0.2500000  -0.5000000  -0.2500000), wk =   0.0625000
        k(   13) = (  -0.5000000  -0.5000000  -0.5000000), wk =   0.0312500
        k(   14) = (  -0.2500000   0.0000000   0.0000000), wk =   0.0625000
        k(   15) = (   0.0000000   0.2500000   0.0000000), wk =   0.0625000
        k(   16) = (   0.5000000   0.0000000   0.0000000), wk =   0.0312500
        k(   17) = (   0.0000000  -0.5000000   0.0000000), wk =   0.0312500
        k(   18) = (  -0.2500000  -0.2500000   0.0000000), wk =   0.0625000
        k(   19) = (   0.2500000   0.0000000   0.2500000), wk =   0.0625000
        k(   20) = (   0.5000000  -0.2500000   0.0000000), wk =   0.0625000
        k(   21) = (  -0.5000000   0.0000000   0.2500000), wk =   0.0625000
        k(   22) = (   0.2500000  -0.5000000   0.0000000), wk =   0.0625000
        k(   23) = (  -0.2500000   0.0000000   0.5000000), wk =   0.0625000
        k(   24) = (   0.0000000   0.5000000  -0.2500000), wk =   0.0625000
        k(   25) = (   0.2500000  -0.2500000   0.0000000), wk =   0.0625000
        k(   26) = (  -0.2500000   0.0000000   0.2500000), wk =   0.0625000
        k(   27) = (   0.5000000   0.5000000   0.0000000), wk =   0.0312500
        k(   28) = (  -0.5000000   0.0000000  -0.5000000), wk =   0.0312500
        k(   29) = (   0.5000000  -0.2500000  -0.2500000), wk =   0.0625000
        k(   30) = (   0.2500000  -0.5000000   0.2500000), wk =   0.0625000
        k(   31) = (   0.2500000  -0.2500000  -0.2500000), wk =   0.0625000
        k(   32) = (   0.2500000  -0.2500000   0.2500000), wk =   0.0625000
        k(   33) = (   0.5000000   0.5000000  -0.2500000), wk =   0.0625000
        k(   34) = (  -0.5000000   0.2500000  -0.5000000), wk =   0.0625000
        k(   35) = (  -0.2500000   0.2500000  -0.5000000), wk =   0.0625000
        k(   36) = (  -0.5000000  -0.2500000   0.2500000), wk =   0.0625000

     Dense  grid:    69617 G-vectors     FFT dimensions: (  60,  60,  60)

     Smooth grid:    17573 G-vectors     FFT dimensions: (  40,  40,  40)

     Largest allocated arrays     est. size (Mb)     dimensions
        Kohn-Sham Wavefunctions         0.79 Mb     (   1119,   46)
        Atomic wavefunctions            1.06 Mb     (   1119,   62)
        NL pseudopotentials             2.05 Mb     (   1119,  120)
        Each V/rho on FFT grid          1.65 Mb     ( 108000)
        Each G-vector array             0.27 Mb     (  34808)
        G-vector shells                 0.04 Mb     (   4682)
     Largest temporary arrays     est. size (Mb)     dimensions
        Auxiliary wavefunctions         3.14 Mb     (   1119,  184)
        Each subspace H/S matrix        0.52 Mb     ( 184, 184)
        Each <psi_i|beta_j> matrix      0.08 Mb     (    120,   46)
        Arrays for rho mixing          13.18 Mb     ( 108000,   8)

     Check: negative/imaginary core charge=   -0.000028    0.000000

     The initial density is read from file :
     /home/mcurnan/dft-course/Project1/example_LaCoO3/0/O/alpha/CoLaO_U0.save/charge-density.dat

 --- in v_hubbard ---
Hubbard energy   -0.0399
 -------
     Number of +U iterations with fixed ns =  0
     Starting occupations:
 --- enter write_ns ---
 LDA+U parameters:
U( 1)     =  0.00000000
alpha( 1) =  0.00000000
U( 2)     =  0.00000000
alpha( 2) =  0.00000000
U( 3)     =  0.00000000
alpha( 3) = -0.10000000
U( 4)     =  0.00000000
alpha( 4) =  0.00000000
atom    1   Tr[ns(na)] =   8.02205
    eigenvalues: 
  0.596  0.596  0.938  0.941  0.941
    eigenvectors:
  0.000  0.000  1.000  0.000  0.000
  0.057  0.598  0.000  0.178  0.167
  0.598  0.057  0.000  0.167  0.178
  0.210  0.135  0.000  0.095  0.560
  0.135  0.210  0.000  0.560  0.095
    occupations:
  0.938  0.000  0.000  0.000  0.000
  0.000  0.715  0.000 -0.060  0.152
  0.000  0.000  0.715  0.152  0.060
  0.000 -0.060  0.152  0.822  0.000
  0.000  0.152  0.060  0.000  0.822
atom    2   Tr[ns(na)] =   8.02142
    eigenvalues: 
  0.595  0.595  0.938  0.941  0.941
    eigenvectors:
  0.000  0.000  1.000  0.000  0.000
  0.332  0.323  0.000  0.023  0.322
  0.323  0.332  0.000  0.322  0.023
  0.288  0.057  0.000  0.647  0.008
  0.057  0.288  0.000  0.008  0.647
    occupations:
  0.938  0.000  0.000  0.000  0.000
  0.000  0.715  0.000  0.060  0.153
  0.000  0.000  0.715  0.153 -0.060
  0.000  0.060  0.153  0.822  0.000
  0.000  0.153 -0.060  0.000  0.822
atom    3   Tr[ns(na)] =   3.80282
    eigenvalues: 
  0.355  0.355  0.384  0.403  0.403
    eigenvectors:
  0.000  0.000  1.000  0.000  0.000
  0.065  0.856  0.000  0.058  0.021
  0.856  0.065  0.000  0.021  0.058
  0.073  0.006  0.000  0.250  0.670
  0.006  0.073  0.000  0.670  0.250
    occupations:
  0.384  0.000  0.000  0.000  0.000
  0.000  0.359  0.000  0.000  0.013
  0.000  0.000  0.359  0.013  0.000
  0.000  0.000  0.013  0.399  0.000
  0.000  0.013  0.000  0.000  0.399
atom    4   Tr[ns(na)] =   3.80282
    eigenvalues: 
  0.355  0.355  0.384  0.403  0.403
    eigenvectors:
  0.000  0.000  1.000  0.000  0.000
  0.729  0.192  0.000  0.048  0.032
  0.192  0.729  0.000  0.032  0.048
  0.017  0.062  0.000  0.359  0.562
  0.062  0.017  0.000  0.562  0.359
    occupations:
  0.384  0.000  0.000  0.000  0.000
  0.000  0.359  0.000  0.000  0.013
  0.000  0.000  0.359  0.013  0.000
  0.000  0.000  0.013  0.399  0.000
  0.000  0.013  0.000  0.000  0.399
atom    5   Tr[ns(na)] =   5.43357
    eigenvalues: 
  0.846  0.929  0.941
    eigenvectors:
  0.340  0.000  0.660
  0.496  0.250  0.255
  0.164  0.750  0.086
    occupations:
  0.909 -0.039  0.022
 -0.039  0.891  0.022
  0.022  0.022  0.917
atom    6   Tr[ns(na)] =   5.43358
    eigenvalues: 
  0.846  0.929  0.941
    eigenvectors:
  0.340  0.000  0.660
  0.494  0.250  0.256
  0.166  0.750  0.085
    occupations:
  0.909  0.039  0.022
  0.039  0.891 -0.022
  0.022 -0.022  0.917
atom    7   Tr[ns(na)] =   5.43358
    eigenvalues: 
  0.846  0.929  0.941
    eigenvectors:
  0.340  0.000  0.660
  0.000  1.000  0.000
  0.660  0.000  0.340
    occupations:
  0.909  0.000 -0.045
  0.000  0.929  0.000
 -0.045  0.000  0.879
atom    8   Tr[ns(na)] =   5.43357
    eigenvalues: 
  0.846  0.929  0.941
    eigenvectors:
  0.340  0.000  0.660
  0.496  0.250  0.255
  0.164  0.750  0.086
    occupations:
  0.909 -0.039  0.022
 -0.039  0.891  0.022
  0.022  0.022  0.917
atom    9   Tr[ns(na)] =   5.43358
    eigenvalues: 
  0.846  0.929  0.941
    eigenvectors:
  0.340  0.000  0.660
  0.494  0.250  0.256
  0.166  0.750  0.085
    occupations:
  0.909  0.039  0.022
  0.039  0.891 -0.022
  0.022 -0.022  0.917
atom   10   Tr[ns(na)] =   5.43358
    eigenvalues: 
  0.846  0.929  0.941
    eigenvectors:
  0.340  0.000  0.660
  0.000  1.000  0.000
  0.660  0.000  0.340
    occupations:
  0.909  0.000 -0.045
  0.000  0.929  0.000
 -0.045  0.000  0.879
N of occupied +U levels =  56.2505796
 --- exit write_ns ---
 LDA+U Projector read from file 
     Starting wfc from file

     total cpu time spent up to now is        7.4 secs

     per-process dynamical memory:    62.8 Mb

     Self-consistent Calculation

     iteration #  1     ecut=    30.00 Ry     beta=0.20
     Davidson diagonalization with overlap
     c_bands:  1 eigenvalues not converged
     c_bands:  1 eigenvalues not converged
     c_bands:  1 eigenvalues not converged
     c_bands:  1 eigenvalues not converged
     c_bands:  1 eigenvalues not converged
     c_bands:  1 eigenvalues not converged
     c_bands:  1 eigenvalues not converged
     c_bands:  1 eigenvalues not converged
     c_bands:  1 eigenvalues not converged
     c_bands:  1 eigenvalues not converged
     c_bands:  1 eigenvalues not converged
     c_bands:  1 eigenvalues not converged
     c_bands:  1 eigenvalues not converged
     c_bands:  1 eigenvalues not converged
     c_bands:  1 eigenvalues not converged
     c_bands:  1 eigenvalues not converged
     c_bands:  1 eigenvalues not converged
     c_bands:  1 eigenvalues not converged
     c_bands:  1 eigenvalues not converged
     c_bands:  1 eigenvalues not converged
     c_bands:  1 eigenvalues not converged
     ethr =  1.00E-10,  avg # of iterations = 17.3
 --- enter write_ns ---
 LDA+U parameters:
U( 1)     =  0.00000000
alpha( 1) =  0.00000000
U( 2)     =  0.00000000
alpha( 2) =  0.00000000
U( 3)     =  0.00000000
alpha( 3) = -0.10000000
U( 4)     =  0.00000000
alpha( 4) =  0.00000000
atom    1   Tr[ns(na)] =   8.01770
    eigenvalues: 
  0.594  0.595  0.938  0.941  0.941
    eigenvectors:
  0.000  0.000  0.960  0.038  0.003
  0.554  0.101  0.011  0.176  0.158
  0.101  0.554  0.003  0.157  0.186
  0.171  0.174  0.015  0.517  0.122
  0.174  0.171  0.011  0.113  0.531
    occupations:
  0.938  0.000  0.000  0.000  0.000
  0.000  0.714  0.000 -0.061  0.153
  0.000  0.000  0.715  0.153  0.060
  0.000 -0.061  0.153  0.821  0.000
  0.000  0.153  0.060  0.000  0.822
atom    2   Tr[ns(na)] =   8.01733
    eigenvalues: 
  0.594  0.595  0.938  0.941  0.941
    eigenvectors:
  0.000  0.000  0.967  0.031  0.002
  0.420  0.235  0.008  0.306  0.031
  0.235  0.420  0.003  0.028  0.313
  0.024  0.321  0.001  0.004  0.651
  0.321  0.024  0.021  0.630  0.003
    occupations:
  0.938  0.000  0.000  0.000  0.000
  0.000  0.714  0.000  0.060  0.154
  0.000  0.000  0.714  0.153 -0.060
  0.000  0.060  0.153  0.822  0.000
  0.000  0.154 -0.060  0.000  0.821
atom    3   Tr[ns(na)] =   3.80058
    eigenvalues: 
  0.355  0.355  0.384  0.403  0.403
    eigenvectors:
  0.000  0.000  1.000  0.000  0.000
  0.229  0.689  0.000  0.062  0.019
  0.690  0.229  0.000  0.019  0.061
  0.060  0.021  0.000  0.227  0.693
  0.021  0.061  0.000  0.692  0.227
    occupations:
  0.384  0.000  0.000  0.000  0.000
  0.000  0.359  0.000  0.000  0.013
  0.000  0.000  0.359  0.013  0.000
  0.000  0.000  0.013  0.399  0.000
  0.000  0.013  0.000  0.000  0.399
atom    4   Tr[ns(na)] =   3.80077
    eigenvalues: 
  0.355  0.355  0.384  0.403  0.403
    eigenvectors:
  0.000  0.000  1.000  0.000  0.000
  0.690  0.233  0.000  0.058  0.020
  0.233  0.688  0.000  0.019  0.060
  0.020  0.059  0.000  0.235  0.686
  0.057  0.021  0.000  0.689  0.234
    occupations:
  0.384  0.000  0.000  0.000  0.000
  0.000  0.359  0.000  0.000  0.013
  0.000  0.000  0.359  0.013  0.000
  0.000  0.000  0.013  0.399  0.000
  0.000  0.013  0.000  0.000  0.399
atom    5   Tr[ns(na)] =   5.44827
    eigenvalues: 
  0.850  0.932  0.943
    eigenvectors:
  0.339  0.000  0.661
  0.496  0.250  0.254
  0.164  0.750  0.085
    occupations:
  0.911 -0.038  0.022
 -0.038  0.894  0.022
  0.022  0.022  0.919
atom    6   Tr[ns(na)] =   5.43278
    eigenvalues: 
  0.846  0.929  0.941
    eigenvectors:
  0.340  0.000  0.660
  0.494  0.249  0.257
  0.166  0.751  0.084
    occupations:
  0.909  0.039  0.022
  0.039  0.891 -0.022
  0.022 -0.022  0.917
atom    7   Tr[ns(na)] =   5.43278
    eigenvalues: 
  0.846  0.929  0.941
    eigenvectors:
  0.340  0.000  0.660
  0.000  1.000  0.000
  0.660  0.000  0.340
    occupations:
  0.909  0.000 -0.045
  0.000  0.929  0.000
 -0.045  0.000  0.878
atom    8   Tr[ns(na)] =   5.43273
    eigenvalues: 
  0.846  0.929  0.941
    eigenvectors:
  0.340  0.000  0.660
  0.496  0.250  0.255
  0.164  0.750  0.086
    occupations:
  0.909 -0.039  0.023
 -0.039  0.891  0.022
  0.023  0.022  0.917
atom    9   Tr[ns(na)] =   5.43279
    eigenvalues: 
  0.846  0.929  0.941
    eigenvectors:
  0.340  0.000  0.660
  0.494  0.249  0.257
  0.166  0.751  0.084
    occupations:
  0.909  0.039  0.022
  0.039  0.891 -0.022
  0.022 -0.022  0.916
atom   10   Tr[ns(na)] =   5.43279
    eigenvalues: 
  0.846  0.929  0.941
    eigenvectors:
  0.340  0.000  0.660
  0.000  1.000  0.000
  0.660  0.000  0.340
    occupations:
  0.909  0.000 -0.045
  0.000  0.929  0.000
 -0.045  0.000  0.878
N of occupied +U levels =  56.2485085
 --- exit write_ns ---
 --- in v_hubbard ---
Hubbard energy   -0.0400
 -------

     total cpu time spent up to now is       93.4 secs

     total energy              =    -538.37298984 Ry
     Harris-Foulkes estimate   =    -538.37304978 Ry
     estimated scf accuracy    <       0.00018189 Ry

     iteration #  2     ecut=    30.00 Ry     beta=0.20
     Davidson diagonalization with overlap
     ethr =  2.39E-07,  avg # of iterations =  2.0
 --- enter write_ns ---
 LDA+U parameters:
U( 1)     =  0.00000000
alpha( 1) =  0.00000000
U( 2)     =  0.00000000
alpha( 2) =  0.00000000
U( 3)     =  0.00000000
alpha( 3) = -0.10000000
U( 4)     =  0.00000000
alpha( 4) =  0.00000000
atom    1   Tr[ns(na)] =   8.02283
    eigenvalues: 
  0.595  0.596  0.938  0.941  0.941
    eigenvectors:
  0.000  0.000  0.997  0.003  0.000
  0.554  0.101  0.001  0.133  0.211
  0.101  0.554  0.000  0.211  0.134
  0.171  0.174  0.001  0.598  0.055
  0.174  0.171  0.001  0.055  0.600
    occupations:
  0.938  0.000  0.000  0.000  0.000
  0.000  0.715  0.000 -0.061  0.153
  0.000  0.000  0.715  0.152  0.060
  0.000 -0.061  0.152  0.822  0.000
  0.000  0.153  0.060  0.000  0.822
atom    2   Tr[ns(na)] =   8.02086
    eigenvalues: 
  0.595  0.595  0.938  0.941  0.941
    eigenvectors:
  0.000  0.000  0.998  0.002  0.000
  0.420  0.234  0.001  0.338  0.006
  0.235  0.420  0.000  0.006  0.339
  0.024  0.321  0.000  0.036  0.619
  0.321  0.024  0.002  0.617  0.036
    occupations:
  0.938  0.000  0.000  0.000  0.000
  0.000  0.714  0.000  0.060  0.153
  0.000  0.000  0.715  0.153 -0.060
  0.000  0.060  0.153  0.822  0.000
  0.000  0.153 -0.060  0.000  0.821
atom    3   Tr[ns(na)] =   3.80147
    eigenvalues: 
  0.355  0.355  0.384  0.403  0.403
    eigenvectors:
  0.000  0.000  1.000  0.000  0.000
  0.226  0.694  0.000  0.062  0.018
  0.694  0.226  0.000  0.018  0.062
  0.060  0.020  0.000  0.218  0.702
  0.020  0.060  0.000  0.702  0.218
    occupations:
  0.384  0.000  0.000  0.000  0.000
  0.000  0.359  0.000  0.000  0.013
  0.000  0.000  0.359  0.013  0.000
  0.000  0.000  0.013  0.399  0.000
  0.000  0.013  0.000  0.000  0.399
atom    4   Tr[ns(na)] =   3.80150
    eigenvalues: 
  0.355  0.355  0.384  0.403  0.403
    eigenvectors:
  0.000  0.000  1.000  0.000  0.000
  0.666  0.255  0.000  0.060  0.019
  0.255  0.666  0.000  0.019  0.061
  0.022  0.057  0.000  0.230  0.691
  0.056  0.023  0.000  0.691  0.230
    occupations:
  0.384  0.000  0.000  0.000  0.000
  0.000  0.359  0.000  0.000  0.013
  0.000  0.000  0.359  0.013  0.000
  0.000  0.000  0.013  0.399  0.000
  0.000  0.013  0.000  0.000  0.399
atom    5   Tr[ns(na)] =   5.43925
    eigenvalues: 
  0.848  0.930  0.942
    eigenvectors:
  0.340  0.000  0.660
  0.496  0.250  0.254
  0.164  0.750  0.085
    occupations:
  0.910 -0.039  0.022
 -0.039  0.892  0.022
  0.022  0.022  0.918
atom    6   Tr[ns(na)] =   5.43272
    eigenvalues: 
  0.846  0.929  0.941
    eigenvectors:
  0.340  0.000  0.660
  0.494  0.250  0.256
  0.166  0.750  0.084
    occupations:
  0.909  0.039  0.023
  0.039  0.891 -0.022
  0.023 -0.022  0.917
atom    7   Tr[ns(na)] =   5.43272
    eigenvalues: 
  0.846  0.929  0.941
    eigenvectors:
  0.340  0.000  0.660
  0.000  1.000  0.000
  0.660  0.000  0.340
    occupations:
  0.909  0.000 -0.045
  0.000  0.929  0.000
 -0.045  0.000  0.878
atom    8   Tr[ns(na)] =   5.43322
    eigenvalues: 
  0.846  0.929  0.941
    eigenvectors:
  0.340  0.000  0.660
  0.496  0.250  0.255
  0.164  0.750  0.085
    occupations:
  0.909 -0.039  0.022
 -0.039  0.891  0.022
  0.022  0.022  0.917
atom    9   Tr[ns(na)] =   5.43259
    eigenvalues: 
  0.846  0.929  0.941
    eigenvectors:
  0.340  0.000  0.660
  0.494  0.250  0.256
  0.166  0.750  0.085
    occupations:
  0.909  0.039  0.023
  0.039  0.891 -0.022
  0.023 -0.022  0.916
atom   10   Tr[ns(na)] =   5.43259
    eigenvalues: 
  0.846  0.929  0.941
    eigenvectors:
  0.340  0.000  0.660
  0.000  1.000  0.000
  0.660  0.000  0.340
    occupations:
  0.909  0.000 -0.045
  0.000  0.929  0.000
 -0.045  0.000  0.878
N of occupied +U levels =  56.2497477
 --- exit write_ns ---
 --- in v_hubbard ---
Hubbard energy   -0.0400
 -------

     total cpu time spent up to now is      127.0 secs

     total energy              =    -538.37301546 Ry
     Harris-Foulkes estimate   =    -538.37301731 Ry
     estimated scf accuracy    <       0.00000629 Ry

     iteration #  3     ecut=    30.00 Ry     beta=0.20
     Davidson diagonalization with overlap
     ethr =  8.27E-09,  avg # of iterations =  2.0
 --- enter write_ns ---
 LDA+U parameters:
U( 1)     =  0.00000000
alpha( 1) =  0.00000000
U( 2)     =  0.00000000
alpha( 2) =  0.00000000
U( 3)     =  0.00000000
alpha( 3) = -0.10000000
U( 4)     =  0.00000000
alpha( 4) =  0.00000000
atom    1   Tr[ns(na)] =   8.01708
    eigenvalues: 
  0.595  0.596  0.937  0.940  0.940
    eigenvectors:
  0.000  0.000  0.997  0.003  0.000
  0.553  0.102  0.001  0.147  0.197
  0.102  0.553  0.000  0.197  0.148
  0.171  0.174  0.001  0.582  0.071
  0.174  0.171  0.001  0.071  0.584
    occupations:
  0.938  0.000  0.000  0.000  0.000
  0.000  0.714  0.000 -0.060  0.153
  0.000  0.000  0.715  0.153  0.060
  0.000 -0.060  0.153  0.821  0.000
  0.000  0.153  0.060  0.000  0.821
atom    2   Tr[ns(na)] =   8.02331
    eigenvalues: 
  0.595  0.595  0.939  0.941  0.942
    eigenvectors:
  0.000  0.000  0.997  0.002  0.000
  0.421  0.234  0.001  0.334  0.011
  0.234  0.421  0.000  0.011  0.334
  0.024  0.321  0.000  0.025  0.630
  0.321  0.024  0.002  0.629  0.025
    occupations:
  0.939  0.000  0.000  0.000  0.000
  0.000  0.715  0.000  0.060  0.153
  0.000  0.000  0.715  0.153 -0.060
  0.000  0.060  0.153  0.822  0.000
  0.000  0.153 -0.060  0.000  0.822
atom    3   Tr[ns(na)] =   3.80151
    eigenvalues: 
  0.355  0.355  0.384  0.403  0.403
    eigenvectors:
  0.000  0.000  1.000  0.000  0.000
  0.228  0.693  0.000  0.063  0.017
  0.693  0.228  0.000  0.017  0.063
  0.060  0.020  0.000  0.200  0.720
  0.020  0.060  0.000  0.720  0.200
    occupations:
  0.384  0.000  0.000  0.000  0.000
  0.000  0.359  0.000  0.000  0.013
  0.000  0.000  0.359  0.013  0.000
  0.000  0.000  0.013  0.399  0.000
  0.000  0.013  0.000  0.000  0.399
atom    4   Tr[ns(na)] =   3.80153
    eigenvalues: 
  0.355  0.355  0.384  0.403  0.403
    eigenvectors:
  0.000  0.000  1.000  0.000  0.000
  0.211  0.710  0.000  0.060  0.019
  0.710  0.211  0.000  0.019  0.060
  0.062  0.018  0.000  0.231  0.690
  0.017  0.062  0.000  0.691  0.230
    occupations:
  0.384  0.000  0.000  0.000  0.000
  0.000  0.359  0.000  0.000  0.013
  0.000  0.000  0.359  0.013  0.000
  0.000  0.000  0.013  0.399  0.000
  0.000  0.013  0.000  0.000  0.399
atom    5   Tr[ns(na)] =   5.43950
    eigenvalues: 
  0.848  0.930  0.942
    eigenvectors:
  0.340  0.000  0.660
  0.496  0.250  0.254
  0.164  0.750  0.085
    occupations:
  0.910 -0.039  0.022
 -0.039  0.892  0.022
  0.022  0.022  0.918
atom    6   Tr[ns(na)] =   5.43328
    eigenvalues: 
  0.846  0.929  0.941
    eigenvectors:
  0.340  0.000  0.660
  0.495  0.249  0.256
  0.165  0.751  0.084
    occupations:
  0.909  0.039  0.022
  0.039  0.891 -0.022
  0.022 -0.022  0.917
atom    7   Tr[ns(na)] =   5.43328
    eigenvalues: 
  0.846  0.929  0.941
    eigenvectors:
  0.340  0.000  0.660
  0.000  1.000  0.000
  0.660  0.000  0.340
    occupations:
  0.909  0.000 -0.045
  0.000  0.929  0.000
 -0.045  0.000  0.878
atom    8   Tr[ns(na)] =   5.43361
    eigenvalues: 
  0.846  0.929  0.941
    eigenvectors:
  0.340  0.000  0.660
  0.495  0.250  0.255
  0.164  0.750  0.086
    occupations:
  0.909 -0.039  0.022
 -0.039  0.891  0.022
  0.022  0.022  0.917
atom    9   Tr[ns(na)] =   5.43322
    eigenvalues: 
  0.846  0.929  0.941
    eigenvectors:
  0.340  0.000  0.660
  0.494  0.250  0.256
  0.166  0.750  0.084
    occupations:
  0.909  0.039  0.023
  0.039  0.891 -0.022
  0.023 -0.022  0.917
atom   10   Tr[ns(na)] =   5.43321
    eigenvalues: 
  0.846  0.929  0.941
    eigenvectors:
  0.340  0.000  0.660
  0.000  1.000  0.000
  0.660  0.000  0.340
    occupations:
  0.909  0.000 -0.045
  0.000  0.929  0.000
 -0.045  0.000  0.878
N of occupied +U levels =  56.2495164
 --- exit write_ns ---
 --- in v_hubbard ---
Hubbard energy   -0.0400
 -------

     total cpu time spent up to now is      163.8 secs

     total energy              =    -538.37301516 Ry
     Harris-Foulkes estimate   =    -538.37301752 Ry
     estimated scf accuracy    <       0.00002514 Ry

     iteration #  4     ecut=    30.00 Ry     beta=0.20
     Davidson diagonalization with overlap
     ethr =  8.27E-09,  avg # of iterations =  1.0
 --- enter write_ns ---
 LDA+U parameters:
U( 1)     =  0.00000000
alpha( 1) =  0.00000000
U( 2)     =  0.00000000
alpha( 2) =  0.00000000
U( 3)     =  0.00000000
alpha( 3) = -0.10000000
U( 4)     =  0.00000000
alpha( 4) =  0.00000000
atom    1   Tr[ns(na)] =   8.02285
    eigenvalues: 
  0.595  0.596  0.938  0.941  0.941
    eigenvectors:
  0.000  0.000  0.997  0.003  0.000
  0.553  0.102  0.001  0.151  0.193
  0.101  0.553  0.000  0.194  0.151
  0.172  0.174  0.001  0.578  0.076
  0.174  0.171  0.001  0.075  0.579
    occupations:
  0.938  0.000  0.000  0.000  0.000
  0.000  0.715  0.000 -0.061  0.153
  0.000  0.000  0.715  0.153  0.060
  0.000 -0.061  0.153  0.822  0.000
  0.000  0.153  0.060  0.000  0.822
atom    2   Tr[ns(na)] =   8.01774
    eigenvalues: 
  0.594  0.595  0.938  0.941  0.941
    eigenvectors:
  0.000  0.000  0.997  0.002  0.000
  0.421  0.234  0.001  0.332  0.013
  0.234  0.421  0.000  0.012  0.332
  0.024  0.321  0.000  0.021  0.634
  0.321  0.024  0.002  0.632  0.021
    occupations:
  0.938  0.000  0.000  0.000  0.000
  0.000  0.714  0.000  0.060  0.153
  0.000  0.000  0.714  0.153 -0.060
  0.000  0.060  0.153  0.822  0.000
  0.000  0.153 -0.060  0.000  0.821
atom    3   Tr[ns(na)] =   3.80152
    eigenvalues: 
  0.355  0.355  0.384  0.403  0.403
    eigenvectors:
  0.000  0.000  1.000  0.000  0.000
  0.228  0.692  0.000  0.064  0.016
  0.692  0.228  0.000  0.016  0.064
  0.059  0.020  0.000  0.189  0.731
  0.020  0.059  0.000  0.731  0.189
    occupations:
  0.384  0.000  0.000  0.000  0.000
  0.000  0.359  0.000  0.000  0.013
  0.000  0.000  0.359  0.013  0.000
  0.000  0.000  0.013  0.399  0.000
  0.000  0.013  0.000  0.000  0.399
atom    4   Tr[ns(na)] =   3.80154
    eigenvalues: 
  0.355  0.355  0.384  0.403  0.403
    eigenvectors:
  0.000  0.000  1.000  0.000  0.000
  0.147  0.774  0.000  0.060  0.019
  0.773  0.147  0.000  0.019  0.060
  0.066  0.013  0.000  0.231  0.689
  0.013  0.066  0.000  0.690  0.231
    occupations:
  0.384  0.000  0.000  0.000  0.000
  0.000  0.359  0.000  0.000  0.013
  0.000  0.000  0.359  0.013  0.000
  0.000  0.000  0.013  0.399  0.000
  0.000  0.013  0.000  0.000  0.399
atom    5   Tr[ns(na)] =   5.43944
    eigenvalues: 
  0.848  0.930  0.942
    eigenvectors:
  0.340  0.000  0.660
  0.496  0.250  0.254
  0.164  0.750  0.085
    occupations:
  0.910 -0.039  0.022
 -0.039  0.892  0.022
  0.022  0.022  0.918
atom    6   Tr[ns(na)] =   5.43325
    eigenvalues: 
  0.846  0.929  0.941
    eigenvectors:
  0.340  0.000  0.660
  0.494  0.250  0.256
  0.166  0.750  0.084
    occupations:
  0.909  0.039  0.022
  0.039  0.891 -0.022
  0.022 -0.022  0.917
atom    7   Tr[ns(na)] =   5.43325
    eigenvalues: 
  0.846  0.929  0.941
    eigenvectors:
  0.340  0.000  0.660
  0.000  1.000  0.000
  0.660  0.000  0.340
    occupations:
  0.909  0.000 -0.045
  0.000  0.929  0.000
 -0.045  0.000  0.878
atom    8   Tr[ns(na)] =   5.43356
    eigenvalues: 
  0.846  0.929  0.941
    eigenvectors:
  0.340  0.000  0.660
  0.496  0.250  0.255
  0.164  0.750  0.085
    occupations:
  0.909 -0.039  0.022
 -0.039  0.891  0.022
  0.022  0.022  0.917
atom    9   Tr[ns(na)] =   5.43319
    eigenvalues: 
  0.846  0.929  0.941
    eigenvectors:
  0.340  0.000  0.660
  0.494  0.250  0.256
  0.166  0.750  0.084
    occupations:
  0.909  0.039  0.023
  0.039  0.891 -0.022
  0.023 -0.022  0.917
atom   10   Tr[ns(na)] =   5.43319
    eigenvalues: 
  0.846  0.929  0.941
    eigenvectors:
  0.340  0.000  0.660
  0.000  1.000  0.000
  0.660  0.000  0.340
    occupations:
  0.909  0.000 -0.045
  0.000  0.929  0.000
 -0.045  0.000  0.878
N of occupied +U levels =  56.2495524
 --- exit write_ns ---
 --- in v_hubbard ---
Hubbard energy   -0.0400
 -------

     total cpu time spent up to now is      200.5 secs

     total energy              =    -538.37301633 Ry
     Harris-Foulkes estimate   =    -538.37301706 Ry
     estimated scf accuracy    <       0.00001086 Ry

     iteration #  5     ecut=    30.00 Ry     beta=0.20
     Davidson diagonalization with overlap
     ethr =  8.27E-09,  avg # of iterations =  1.0
 --- enter write_ns ---
 LDA+U parameters:
U( 1)     =  0.00000000
alpha( 1) =  0.00000000
U( 2)     =  0.00000000
alpha( 2) =  0.00000000
U( 3)     =  0.00000000
alpha( 3) = -0.10000000
U( 4)     =  0.00000000
alpha( 4) =  0.00000000
atom    1   Tr[ns(na)] =   8.02089
    eigenvalues: 
  0.595  0.596  0.938  0.941  0.941
    eigenvectors:
  0.000  0.000  0.996  0.003  0.000
  0.553  0.102  0.001  0.161  0.183
  0.102  0.553  0.000  0.183  0.162
  0.172  0.174  0.001  0.565  0.088
  0.174  0.171  0.001  0.088  0.566
    occupations:
  0.938  0.000  0.000  0.000  0.000
  0.000  0.714  0.000 -0.061  0.153
  0.000  0.000  0.715  0.152  0.060
  0.000 -0.061  0.152  0.821  0.000
  0.000  0.153  0.060  0.000  0.822
atom    2   Tr[ns(na)] =   8.02030
    eigenvalues: 
  0.595  0.595  0.938  0.941  0.941
    eigenvectors:
  0.000  0.000  0.997  0.003  0.000
  0.421  0.234  0.001  0.328  0.017
  0.234  0.421  0.000  0.017  0.328
  0.024  0.321  0.000  0.015  0.640
  0.321  0.024  0.002  0.638  0.015
    occupations:
  0.938  0.000  0.000  0.000  0.000
  0.000  0.714  0.000  0.060  0.153
  0.000  0.000  0.714  0.153 -0.060
  0.000  0.060  0.153  0.822  0.000
  0.000  0.153 -0.060  0.000  0.821
atom    3   Tr[ns(na)] =   3.80159
    eigenvalues: 
  0.355  0.355  0.384  0.403  0.403
    eigenvectors:
  0.000  0.000  1.000  0.000  0.000
  0.228  0.692  0.000  0.068  0.012
  0.692  0.228  0.000  0.012  0.068
  0.059  0.020  0.000  0.143  0.777
  0.020  0.059  0.000  0.777  0.143
    occupations:
  0.384  0.000  0.000  0.000  0.000
  0.000  0.359  0.000  0.000  0.013
  0.000  0.000  0.359  0.013  0.000
  0.000  0.000  0.013  0.399  0.000
  0.000  0.013  0.000  0.000  0.399
atom    4   Tr[ns(na)] =   3.80161
    eigenvalues: 
  0.355  0.355  0.384  0.403  0.403
    eigenvectors:
  0.000  0.000  1.000  0.000  0.000
  0.184  0.737  0.000  0.060  0.019
  0.736  0.184  0.000  0.019  0.060
  0.063  0.016  0.000  0.230  0.690
  0.017  0.062  0.000  0.691  0.230
    occupations:
  0.384  0.000  0.000  0.000  0.000
  0.000  0.359  0.000  0.000  0.013
  0.000  0.000  0.359  0.013  0.000
  0.000  0.000  0.013  0.399  0.000
  0.000  0.013  0.000  0.000  0.399
atom    5   Tr[ns(na)] =   5.43932
    eigenvalues: 
  0.848  0.930  0.942
    eigenvectors:
  0.340  0.000  0.660
  0.496  0.250  0.254
  0.164  0.750  0.085
    occupations:
  0.910 -0.039  0.022
 -0.039  0.892  0.022
  0.022  0.022  0.918
atom    6   Tr[ns(na)] =   5.43316
    eigenvalues: 
  0.846  0.929  0.941
    eigenvectors:
  0.340  0.000  0.660
  0.494  0.250  0.256
  0.166  0.750  0.084
    occupations:
  0.909  0.039  0.022
  0.039  0.891 -0.022
  0.022 -0.022  0.917
atom    7   Tr[ns(na)] =   5.43316
    eigenvalues: 
  0.846  0.929  0.941
    eigenvectors:
  0.340  0.000  0.660
  0.000  1.000  0.000
  0.660  0.000  0.340
    occupations:
  0.909  0.000 -0.045
  0.000  0.929  0.000
 -0.045  0.000  0.878
atom    8   Tr[ns(na)] =   5.43343
    eigenvalues: 
  0.846  0.929  0.941
    eigenvectors:
  0.340  0.000  0.660
  0.496  0.250  0.255
  0.164  0.750  0.086
    occupations:
  0.909 -0.039  0.022
 -0.039  0.891  0.022
  0.022  0.022  0.917
atom    9   Tr[ns(na)] =   5.43310
    eigenvalues: 
  0.846  0.929  0.941
    eigenvectors:
  0.340  0.000  0.660
  0.494  0.250  0.256
  0.166  0.750  0.084
    occupations:
  0.909  0.039  0.023
  0.039  0.891 -0.022
  0.023 -0.022  0.917
atom   10   Tr[ns(na)] =   5.43310
    eigenvalues: 
  0.846  0.929  0.941
    eigenvectors:
  0.340  0.000  0.660
  0.000  1.000  0.000
  0.660  0.000  0.340
    occupations:
  0.909  0.000 -0.045
  0.000  0.929  0.000
 -0.045  0.000  0.878
N of occupied +U levels =  56.2496544
 --- exit write_ns ---
 --- in v_hubbard ---
Hubbard energy   -0.0400
 -------

     total cpu time spent up to now is      229.6 secs

     total energy              =    -538.37301651 Ry
     Harris-Foulkes estimate   =    -538.37301667 Ry
     estimated scf accuracy    <       0.00000046 Ry

     iteration #  6     ecut=    30.00 Ry     beta=0.20
     Davidson diagonalization with overlap
     ethr =  5.99E-10,  avg # of iterations =  2.0
 --- enter write_ns ---
 LDA+U parameters:
U( 1)     =  0.00000000
alpha( 1) =  0.00000000
U( 2)     =  0.00000000
alpha( 2) =  0.00000000
U( 3)     =  0.00000000
alpha( 3) = -0.10000000
U( 4)     =  0.00000000
alpha( 4) =  0.00000000
atom    1   Tr[ns(na)] =   8.02088
    eigenvalues: 
  0.595  0.596  0.938  0.941  0.941
    eigenvectors:
  0.000  0.000  0.995  0.005  0.000
  0.553  0.102  0.001  0.183  0.161
  0.102  0.553  0.000  0.161  0.184
  0.172  0.173  0.002  0.533  0.120
  0.173  0.172  0.001  0.119  0.535
    occupations:
  0.938  0.000  0.000  0.000  0.000
  0.000  0.715  0.000 -0.061  0.153
  0.000  0.000  0.715  0.153  0.060
  0.000 -0.061  0.153  0.821  0.000
  0.000  0.153  0.060  0.000  0.822
atom    2   Tr[ns(na)] =   8.02029
    eigenvalues: 
  0.595  0.595  0.938  0.941  0.941
    eigenvectors:
  0.000  0.000  0.996  0.004  0.000
  0.422  0.233  0.001  0.316  0.029
  0.233  0.422  0.000  0.028  0.316
  0.024  0.321  0.000  0.004  0.650
  0.321  0.024  0.002  0.648  0.004
    occupations:
  0.938  0.000  0.000  0.000  0.000
  0.000  0.714  0.000  0.060  0.153
  0.000  0.000  0.714  0.153 -0.060
  0.000  0.060  0.153  0.822  0.000
  0.000  0.153 -0.060  0.000  0.821
atom    3   Tr[ns(na)] =   3.80176
    eigenvalues: 
  0.355  0.355  0.384  0.403  0.403
    eigenvectors:
  0.000  0.000  1.000  0.000  0.000
  0.228  0.692  0.000  0.064  0.016
  0.692  0.228  0.000  0.016  0.064
  0.059  0.020  0.000  0.187  0.733
  0.020  0.059  0.000  0.733  0.187
    occupations:
  0.384  0.000  0.000  0.000  0.000
  0.000  0.359  0.000  0.000  0.013
  0.000  0.000  0.359  0.013  0.000
  0.000  0.000  0.013  0.399  0.000
  0.000  0.013  0.000  0.000  0.399
atom    4   Tr[ns(na)] =   3.80179
    eigenvalues: 
  0.355  0.355  0.384  0.403  0.403
    eigenvectors:
  0.000  0.000  1.000  0.000  0.000
  0.184  0.737  0.000  0.060  0.019
  0.736  0.185  0.000  0.019  0.060
  0.063  0.016  0.000  0.231  0.689
  0.017  0.062  0.000  0.690  0.231
    occupations:
  0.384  0.000  0.000  0.000  0.000
  0.000  0.359  0.000  0.000  0.013
  0.000  0.000  0.359  0.013  0.000
  0.000  0.000  0.013  0.399  0.000
  0.000  0.013  0.000  0.000  0.399
atom    5   Tr[ns(na)] =   5.43931
    eigenvalues: 
  0.848  0.930  0.942
    eigenvectors:
  0.340  0.000  0.660
  0.496  0.250  0.254
  0.164  0.750  0.085
    occupations:
  0.910 -0.039  0.022
 -0.039  0.892  0.022
  0.022  0.022  0.918
atom    6   Tr[ns(na)] =   5.43312
    eigenvalues: 
  0.846  0.929  0.941
    eigenvectors:
  0.340  0.000  0.660
  0.494  0.249  0.256
  0.166  0.751  0.084
    occupations:
  0.909  0.039  0.022
  0.039  0.891 -0.022
  0.022 -0.022  0.917
atom    7   Tr[ns(na)] =   5.43312
    eigenvalues: 
  0.846  0.929  0.941
    eigenvectors:
  0.340  0.000  0.660
  0.000  1.000  0.000
  0.660  0.000  0.340
    occupations:
  0.909  0.000 -0.045
  0.000  0.929  0.000
 -0.045  0.000  0.878
atom    8   Tr[ns(na)] =   5.43336
    eigenvalues: 
  0.846  0.929  0.941
    eigenvectors:
  0.340  0.000  0.660
  0.496  0.250  0.255
  0.164  0.750  0.086
    occupations:
  0.909 -0.039  0.022
 -0.039  0.891  0.022
  0.022  0.022  0.917
atom    9   Tr[ns(na)] =   5.43307
    eigenvalues: 
  0.846  0.929  0.941
    eigenvectors:
  0.340  0.000  0.660
  0.494  0.250  0.256
  0.166  0.750  0.084
    occupations:
  0.909  0.039  0.023
  0.039  0.891 -0.022
  0.023 -0.022  0.917
atom   10   Tr[ns(na)] =   5.43307
    eigenvalues: 
  0.846  0.929  0.941
    eigenvectors:
  0.340  0.000  0.660
  0.000  1.000  0.000
  0.660  0.000  0.340
    occupations:
  0.909  0.000 -0.045
  0.000  0.929  0.000
 -0.045  0.000  0.878
N of occupied +U levels =  56.2497681
 --- exit write_ns ---
 --- in v_hubbard ---
Hubbard energy   -0.0400
 -------

     total cpu time spent up to now is      261.1 secs

     total energy              =    -538.37301653 Ry
     Harris-Foulkes estimate   =    -538.37301655 Ry
     estimated scf accuracy    <       0.00000006 Ry

     iteration #  7     ecut=    30.00 Ry     beta=0.20
     Davidson diagonalization with overlap
     ethr =  8.53E-11,  avg # of iterations =  1.6
 --- enter write_ns ---
 LDA+U parameters:
U( 1)     =  0.00000000
alpha( 1) =  0.00000000
U( 2)     =  0.00000000
alpha( 2) =  0.00000000
U( 3)     =  0.00000000
alpha( 3) = -0.10000000
U( 4)     =  0.00000000
alpha( 4) =  0.00000000
atom    1   Tr[ns(na)] =   8.02087
    eigenvalues: 
  0.595  0.596  0.938  0.941  0.941
    eigenvectors:
  0.000  0.000  0.996  0.004  0.000
  0.553  0.102  0.001  0.180  0.164
  0.102  0.553  0.000  0.164  0.181
  0.172  0.173  0.002  0.538  0.115
  0.173  0.172  0.001  0.114  0.540
    occupations:
  0.938  0.000  0.000  0.000  0.000
  0.000  0.715  0.000 -0.061  0.153
  0.000  0.000  0.715  0.153  0.060
  0.000 -0.061  0.153  0.821  0.000
  0.000  0.153  0.060  0.000  0.822
atom    2   Tr[ns(na)] =   8.02024
    eigenvalues: 
  0.595  0.595  0.938  0.941  0.941
    eigenvectors:
  0.000  0.000  0.997  0.003  0.000
  0.421  0.233  0.001  0.318  0.027
  0.233  0.422  0.000  0.026  0.318
  0.024  0.321  0.000  0.006  0.649
  0.321  0.024  0.002  0.647  0.006
    occupations:
  0.938  0.000  0.000  0.000  0.000
  0.000  0.714  0.000  0.060  0.153
  0.000  0.000  0.714  0.153 -0.060
  0.000  0.060  0.153  0.822  0.000
  0.000  0.153 -0.060  0.000  0.821
atom    3   Tr[ns(na)] =   3.80173
    eigenvalues: 
  0.355  0.355  0.384  0.403  0.403
    eigenvectors:
  0.000  0.000  1.000  0.000  0.000
  0.228  0.692  0.000  0.064  0.015
  0.692  0.228  0.000  0.015  0.064
  0.059  0.020  0.000  0.185  0.735
  0.020  0.059  0.000  0.735  0.185
    occupations:
  0.384  0.000  0.000  0.000  0.000
  0.000  0.359  0.000  0.000  0.013
  0.000  0.000  0.359  0.013  0.000
  0.000  0.000  0.013  0.399  0.000
  0.000  0.013  0.000  0.000  0.399
atom    4   Tr[ns(na)] =   3.80176
    eigenvalues: 
  0.355  0.355  0.384  0.403  0.403
    eigenvectors:
  0.000  0.000  1.000  0.000  0.000
  0.201  0.720  0.000  0.060  0.019
  0.720  0.201  0.000  0.019  0.060
  0.062  0.018  0.000  0.231  0.689
  0.018  0.061  0.000  0.690  0.231
    occupations:
  0.384  0.000  0.000  0.000  0.000
  0.000  0.359  0.000  0.000  0.013
  0.000  0.000  0.359  0.013  0.000
  0.000  0.000  0.013  0.399  0.000
  0.000  0.013  0.000  0.000  0.399
atom    5   Tr[ns(na)] =   5.43925
    eigenvalues: 
  0.848  0.930  0.942
    eigenvectors:
  0.340  0.000  0.660
  0.496  0.250  0.254
  0.164  0.750  0.085
    occupations:
  0.910 -0.039  0.022
 -0.039  0.892  0.022
  0.022  0.022  0.918
atom    6   Tr[ns(na)] =   5.43315
    eigenvalues: 
  0.846  0.929  0.941
    eigenvectors:
  0.340  0.000  0.660
  0.494  0.250  0.256
  0.166  0.750  0.084
    occupations:
  0.909  0.039  0.022
  0.039  0.891 -0.022
  0.022 -0.022  0.917
atom    7   Tr[ns(na)] =   5.43315
    eigenvalues: 
  0.846  0.929  0.941
    eigenvectors:
  0.340  0.000  0.660
  0.000  1.000  0.000
  0.660  0.000  0.340
    occupations:
  0.909  0.000 -0.045
  0.000  0.929  0.000
 -0.045  0.000  0.878
atom    8   Tr[ns(na)] =   5.43340
    eigenvalues: 
  0.846  0.929  0.941
    eigenvectors:
  0.340  0.000  0.660
  0.496  0.250  0.255
  0.164  0.750  0.086
    occupations:
  0.909 -0.039  0.022
 -0.039  0.891  0.022
  0.022  0.022  0.917
atom    9   Tr[ns(na)] =   5.43309
    eigenvalues: 
  0.846  0.929  0.941
    eigenvectors:
  0.340  0.000  0.660
  0.494  0.250  0.256
  0.166  0.750  0.084
    occupations:
  0.909  0.039  0.023
  0.039  0.891 -0.022
  0.023 -0.022  0.917
atom   10   Tr[ns(na)] =   5.43309
    eigenvalues: 
  0.846  0.929  0.941
    eigenvectors:
  0.340  0.000  0.660
  0.000  1.000  0.000
  0.660  0.000  0.340
    occupations:
  0.909  0.000 -0.045
  0.000  0.929  0.000
 -0.045  0.000  0.878
N of occupied +U levels =  56.2497355
 --- exit write_ns ---
 --- in v_hubbard ---
Hubbard energy   -0.0400
 -------

     total cpu time spent up to now is      292.2 secs

     total energy              =    -538.37301653 Ry
     Harris-Foulkes estimate   =    -538.37301654 Ry
     estimated scf accuracy    <       0.00000002 Ry

     iteration #  8     ecut=    30.00 Ry     beta=0.20
     Davidson diagonalization with overlap
     ethr =  2.14E-11,  avg # of iterations =  2.0
 --- enter write_ns ---
 LDA+U parameters:
U( 1)     =  0.00000000
alpha( 1) =  0.00000000
U( 2)     =  0.00000000
alpha( 2) =  0.00000000
U( 3)     =  0.00000000
alpha( 3) = -0.10000000
U( 4)     =  0.00000000
alpha( 4) =  0.00000000
atom    1   Tr[ns(na)] =   8.02087
    eigenvalues: 
  0.595  0.596  0.938  0.941  0.941
    eigenvectors:
  0.000  0.000  0.996  0.004  0.000
  0.553  0.102  0.001  0.177  0.167
  0.102  0.553  0.000  0.167  0.178
  0.172  0.173  0.002  0.542  0.111
  0.173  0.172  0.001  0.110  0.544
    occupations:
  0.938  0.000  0.000  0.000  0.000
  0.000  0.715  0.000 -0.061  0.153
  0.000  0.000  0.715  0.153  0.060
  0.000 -0.061  0.153  0.821  0.000
  0.000  0.153  0.060  0.000  0.822
atom    2   Tr[ns(na)] =   8.02025
    eigenvalues: 
  0.595  0.595  0.938  0.941  0.941
    eigenvectors:
  0.000  0.000  0.997  0.003  0.000
  0.421  0.233  0.001  0.319  0.025
  0.233  0.422  0.000  0.025  0.320
  0.024  0.321  0.000  0.007  0.648
  0.321  0.024  0.002  0.646  0.007
    occupations:
  0.938  0.000  0.000  0.000  0.000
  0.000  0.714  0.000  0.060  0.153
  0.000  0.000  0.714  0.153 -0.060
  0.000  0.060  0.153  0.822  0.000
  0.000  0.153 -0.060  0.000  0.821
atom    3   Tr[ns(na)] =   3.80169
    eigenvalues: 
  0.355  0.355  0.384  0.403  0.403
    eigenvectors:
  0.000  0.000  1.000  0.000  0.000
  0.228  0.692  0.000  0.064  0.016
  0.692  0.228  0.000  0.016  0.064
  0.059  0.020  0.000  0.188  0.732
  0.020  0.059  0.000  0.732  0.188
    occupations:
  0.384  0.000  0.000  0.000  0.000
  0.000  0.359  0.000  0.000  0.013
  0.000  0.000  0.359  0.013  0.000
  0.000  0.000  0.013  0.399  0.000
  0.000  0.013  0.000  0.000  0.399
atom    4   Tr[ns(na)] =   3.80172
    eigenvalues: 
  0.355  0.355  0.384  0.403  0.403
    eigenvectors:
  0.000  0.000  1.000  0.000  0.000
  0.202  0.719  0.000  0.060  0.019
  0.718  0.203  0.000  0.019  0.060
  0.062  0.018  0.000  0.232  0.688
  0.018  0.061  0.000  0.689  0.232
    occupations:
  0.384  0.000  0.000  0.000  0.000
  0.000  0.359  0.000  0.000  0.013
  0.000  0.000  0.359  0.013  0.000
  0.000  0.000  0.013  0.399  0.000
  0.000  0.013  0.000  0.000  0.399
atom    5   Tr[ns(na)] =   5.43925
    eigenvalues: 
  0.848  0.930  0.942
    eigenvectors:
  0.340  0.000  0.660
  0.496  0.250  0.254
  0.164  0.750  0.085
    occupations:
  0.910 -0.039  0.022
 -0.039  0.892  0.022
  0.022  0.022  0.918
atom    6   Tr[ns(na)] =   5.43316
    eigenvalues: 
  0.846  0.929  0.941
    eigenvectors:
  0.340  0.000  0.660
  0.494  0.250  0.256
  0.166  0.750  0.084
    occupations:
  0.909  0.039  0.022
  0.039  0.891 -0.022
  0.022 -0.022  0.917
atom    7   Tr[ns(na)] =   5.43316
    eigenvalues: 
  0.846  0.929  0.941
    eigenvectors:
  0.340  0.000  0.660
  0.000  1.000  0.000
  0.660  0.000  0.340
    occupations:
  0.909  0.000 -0.045
  0.000  0.929  0.000
 -0.045  0.000  0.878
atom    8   Tr[ns(na)] =   5.43341
    eigenvalues: 
  0.846  0.929  0.941
    eigenvectors:
  0.340  0.000  0.660
  0.496  0.250  0.255
  0.164  0.750  0.086
    occupations:
  0.909 -0.039  0.022
 -0.039  0.891  0.022
  0.022  0.022  0.917
atom    9   Tr[ns(na)] =   5.43310
    eigenvalues: 
  0.846  0.929  0.941
    eigenvectors:
  0.340  0.000  0.660
  0.494  0.250  0.256
  0.166  0.750  0.084
    occupations:
  0.909  0.039  0.023
  0.039  0.891 -0.022
  0.023 -0.022  0.917
atom   10   Tr[ns(na)] =   5.43310
    eigenvalues: 
  0.846  0.929  0.941
    eigenvectors:
  0.340  0.000  0.660
  0.000  1.000  0.000
  0.660  0.000  0.340
    occupations:
  0.909  0.000 -0.045
  0.000  0.929  0.000
 -0.045  0.000  0.878
N of occupied +U levels =  56.2497119
 --- exit write_ns ---
 --- in v_hubbard ---
Hubbard energy   -0.0400
 -------

     total cpu time spent up to now is      326.9 secs

     End of self-consistent calculation

          k = 0.0000 0.0000 0.0000 (  2175 PWs)   bands (ev):

   -19.7945 -19.6214  -6.5269  -5.8104  -5.8055  -5.7965  -5.7753  -5.4588
    -3.7498  -3.2596  -3.1853  -3.1837  -3.0201  -3.0195   5.1825   6.9302
     6.9397   7.5126   7.5237   7.7120   7.8210   7.8260   7.8839   9.2992
     9.6146   9.6243   9.8749   9.9242   9.9288  10.4702  10.4729  10.6663
    10.6664  10.6831  10.8139  11.5110  11.5125  12.1819  12.2989  12.3006
    14.7738  14.7764  15.4320  15.4335  16.1988  16.7915

     occupation numbers 
     0.0313   0.0313   0.0313   0.0313   0.0313   0.0313   0.0313   0.0313
     0.0313   0.0313   0.0313   0.0313   0.0313   0.0313   0.0313   0.0313
     0.0313   0.0313   0.0313   0.0313   0.0313   0.0313   0.0313   0.0313
     0.0313   0.0313   0.0312   0.0312   0.0312   0.0312   0.0312   0.0312
     0.0312   0.0312   0.0312   0.0309   0.0309   0.0150   0.0101   0.0100
     0.0000   0.0000   0.0000   0.0000   0.0000   0.0000

          k =-0.2471-0.1427 0.1027 (  2181 PWs)   bands (ev):

   -19.7669 -19.6446  -6.7076  -6.2672  -5.9078  -5.8199  -5.5832  -5.4471
    -3.5684  -3.3772  -2.9166  -2.8933  -2.8305  -2.7494   5.5488   6.8797
     7.0339   7.0438   7.3403   7.5104   7.5767   7.8248   7.8652   8.6183
     8.7179   9.3483   9.6647   9.8079   9.8547  10.0359  10.3819  10.3922
    11.0387  11.0704  11.1525  11.8835  11.9352  11.9967  12.3576  12.4176
    14.3179  14.3277  15.8200  16.0763  16.9758  17.2716

     occupation numbers 
     0.0625   0.0625   0.0625   0.0625   0.0625   0.0625   0.0625   0.0625
     0.0625   0.0625   0.0625   0.0625   0.0625   0.0625   0.0625   0.0625
     0.0625   0.0625   0.0625   0.0625   0.0625   0.0625   0.0625   0.0625
     0.0625   0.0625   0.0625   0.0625   0.0625   0.0625   0.0625   0.0625
     0.0625   0.0625   0.0625   0.0523   0.0493   0.0451   0.0159   0.0120
     0.0000   0.0000   0.0000   0.0000   0.0000   0.0000

          k = 0.4942 0.2853-0.2053 (  2202 PWs)   bands (ev):

   -19.7043 -19.7029  -6.7117  -6.6932  -5.9352  -5.9246  -5.4996  -5.4803
    -3.3657  -3.3651  -2.7759  -2.7713  -2.4999  -2.4961   6.0791   6.1007
     7.2274   7.2360   7.2884   7.3124   7.6479   7.6837   7.9867   8.0069
     8.1995   8.2199   9.5399   9.5441   9.8787   9.8900  10.2852  10.2951
    11.4770  11.4783  11.5559  11.5591  11.7209  11.7242  13.2981  13.3254
    13.3852  13.4156  16.8380  16.8454  17.1368  17.1419

     occupation numbers 
     0.0313   0.0313   0.0313   0.0313   0.0313   0.0313   0.0313   0.0313
     0.0313   0.0313   0.0313   0.0313   0.0313   0.0313   0.0313   0.0313
     0.0313   0.0313   0.0313   0.0313   0.0313   0.0313   0.0313   0.0313
     0.0313   0.0313   0.0313   0.0313   0.0312   0.0312   0.0312   0.0312
     0.0310   0.0310   0.0307   0.0307   0.0293   0.0293   0.0000   0.0000
     0.0000   0.0000   0.0000   0.0000   0.0000   0.0000

          k =-0.2471 0.1427 0.2053 (  2195 PWs)   bands (ev):

   -19.7618 -19.6469  -6.8375  -6.2091  -6.0465  -5.7915  -5.6201  -5.4276
    -3.3939  -3.2529  -3.0863  -2.8765  -2.7988  -2.5510   5.5878   6.8365
     6.9376   7.1262   7.2448   7.4788   7.4957   7.8728   7.8746   8.6885
     8.9030   8.9121   9.3048   9.7937   9.9915  10.1042  10.2101  10.3085
    10.6885  11.3943  11.4198  11.5087  11.9339  12.0012  12.1753  12.7367
    13.6401  14.7912  15.9964  16.1988  17.0417  17.5403

     occupation numbers 
     0.0625   0.0625   0.0625   0.0625   0.0625   0.0625   0.0625   0.0625
     0.0625   0.0625   0.0625   0.0625   0.0625   0.0625   0.0625   0.0625
     0.0625   0.0625   0.0625   0.0625   0.0625   0.0625   0.0625   0.0625
     0.0625   0.0625   0.0625   0.0625   0.0625   0.0625   0.0625   0.0625
     0.0625   0.0623   0.0622   0.0618   0.0494   0.0448   0.0305   0.0015
     0.0000   0.0000   0.0000   0.0000   0.0000   0.0000

          k = 0.4942 0.5706-0.1027 (  2198 PWs)   bands (ev):

   -19.7221 -19.6819  -6.9408  -6.6249  -6.1135  -5.8567  -5.4734  -5.3521
    -3.2898  -3.2421  -2.8640  -2.6967  -2.5161  -2.3749   5.9233   6.2708
     6.8965   7.0429   7.2343   7.3559   7.5593   7.8072   7.9524   8.0865
     8.3628   8.9183   9.1652   9.3559   9.6735   9.8213   9.9754  10.3724
    11.1052  11.5440  11.6332  11.7056  11.8363  11.8566  12.3405  12.7439
    13.4263  14.3673  16.9101  17.1206  17.3166  18.0206

     occupation numbers 
     0.0625   0.0625   0.0625   0.0625   0.0625   0.0625   0.0625   0.0625
     0.0625   0.0625   0.0625   0.0625   0.0625   0.0625   0.0625   0.0625
     0.0625   0.0625   0.0625   0.0625   0.0625   0.0625   0.0625   0.0625
     0.0625   0.0625   0.0625   0.0625   0.0625   0.0625   0.0625   0.0625
     0.0625   0.0615   0.0605   0.0591   0.0546   0.0537   0.0171   0.0014
     0.0000   0.0000   0.0000   0.0000   0.0000   0.0000

          k = 0.2471 0.4280 0.0000 (  2203 PWs)   bands (ev):

   -19.7323 -19.6745  -6.8247  -6.6225  -6.0163  -5.9593  -5.4123  -5.3283
    -3.4961  -3.2841  -2.7904  -2.6960  -2.5538  -2.5459   5.8830   6.3316
     7.0842   7.1400   7.2422   7.3282   7.4584   7.7372   7.8249   8.2019
     8.4410   8.9339   9.4169   9.4737   9.7855   9.8010  10.0710  10.3728
    11.4057  11.4153  11.4441  11.6649  11.6756  11.9529  12.2866  13.3277
    13.3993  14.1590  16.4414  16.9989  17.4264  17.9313

     occupation numbers 
     0.0625   0.0625   0.0625   0.0625   0.0625   0.0625   0.0625   0.0625
     0.0625   0.0625   0.0625   0.0625   0.0625   0.0625   0.0625   0.0625
     0.0625   0.0625   0.0625   0.0625   0.0625   0.0625   0.0625   0.0625
     0.0625   0.0625   0.0625   0.0625   0.0625   0.0625   0.0625   0.0625
     0.0622   0.0622   0.0621   0.0599   0.0597   0.0482   0.0212   0.0000
     0.0000   0.0000   0.0000   0.0000   0.0000   0.0000

          k = 0.4942-0.2853-0.4107 (  2202 PWs)   bands (ev):

   -19.7287 -19.6722  -7.1516  -6.4408  -6.2296  -5.9194  -5.4965  -5.2562
    -3.1792  -3.1184  -3.0297  -2.6426  -2.4709  -2.2129   5.8224   6.3097
     6.4667   6.9325   7.1572   7.2664   7.8999   7.9252   8.1593   8.3032
     8.5795   8.6101   8.6281   9.4057   9.6728  10.0387  10.0816  10.4513
    10.6542  11.2998  11.5689  11.7583  11.8645  11.9716  12.0711  12.4595
    13.3250  14.8031  17.0467  17.2703  17.5270  17.6120

     occupation numbers 
     0.0313   0.0313   0.0313   0.0313   0.0313   0.0313   0.0313   0.0313
     0.0313   0.0313   0.0313   0.0313   0.0313   0.0313   0.0313   0.0313
     0.0313   0.0313   0.0313   0.0313   0.0313   0.0313   0.0313   0.0313
     0.0313   0.0313   0.0313   0.0313   0.0313   0.0312   0.0312   0.0312
     0.0312   0.0312   0.0307   0.0288   0.0266   0.0235   0.0197   0.0049
     0.0000   0.0000   0.0000   0.0000   0.0000   0.0000

          k = 0.0000 0.0000 0.3080 (  2187 PWs)   bands (ev):

   -19.7667 -19.6444  -6.5955  -5.9593  -5.9044  -5.8910  -5.8175  -5.8003
    -3.1859  -3.0917  -3.0892  -2.9590  -2.8858  -2.8836   5.6017   7.0256
     7.0362   7.1400   7.4358   7.4465   7.5216   7.8515   7.8563   8.8643
     8.8700   9.4375   9.4441   9.6632   9.6735   9.8819  10.1367  10.1461
    11.1551  11.1558  11.2196  11.8965  11.8973  12.0092  12.3388  12.3407
    14.2788  14.2814  15.9139  15.9158  16.8818  17.4855

     occupation numbers 
     0.0625   0.0625   0.0625   0.0625   0.0625   0.0625   0.0625   0.0625
     0.0625   0.0625   0.0625   0.0625   0.0625   0.0625   0.0625   0.0625
     0.0625   0.0625   0.0625   0.0625   0.0625   0.0625   0.0625   0.0625
     0.0625   0.0625   0.0625   0.0625   0.0625   0.0625   0.0625   0.0625
     0.0625   0.0625   0.0625   0.0516   0.0515   0.0442   0.0172   0.0171
     0.0000   0.0000   0.0000   0.0000   0.0000   0.0000

          k = 0.7412 0.4280 0.0000 (  2204 PWs)   bands (ev):

   -19.7319 -19.6744  -6.7146  -6.5768  -6.1243  -5.8069  -5.6459  -5.5114
    -3.1544  -3.0767  -3.0353  -2.6650  -2.6433  -2.5698   5.9343   6.5063
     7.1016   7.2072   7.2342   7.3450   7.4574   7.6696   8.0116   8.1489
     8.4589   8.8520   9.4784   9.5019   9.6176   9.6881   9.8638  10.2226
    11.4008  11.4152  11.5125  11.6947  11.7208  11.8868  12.2975  13.2502
    13.3129  14.1856  16.6956  16.7268  17.5938  17.7992

     occupation numbers 
     0.0625   0.0625   0.0625   0.0625   0.0625   0.0625   0.0625   0.0625
     0.0625   0.0625   0.0625   0.0625   0.0625   0.0625   0.0625   0.0625
     0.0625   0.0625   0.0625   0.0625   0.0625   0.0625   0.0625   0.0625
     0.0625   0.0625   0.0625   0.0625   0.0625   0.0625   0.0625   0.0625
     0.0623   0.0622   0.0618   0.0593   0.0587   0.0521   0.0203   0.0000
     0.0000   0.0000   0.0000   0.0000   0.0000   0.0000

          k = 0.4942 0.2853 0.1027 (  2211 PWs)   bands (ev):

   -19.7229 -19.6823  -6.9480  -6.5240  -6.3003  -5.6691  -5.6021  -5.3157
    -3.3026  -3.1556  -3.0155  -2.5919  -2.5483  -2.3649   5.9407   6.2541
     6.8386   7.0260   7.2246   7.2893   7.5852   7.8837   7.9865   8.0492
     8.4056   9.0424   9.1742   9.4092   9.5519   9.6861  10.0293  10.3887
    11.1185  11.5805  11.7075  11.7133  11.7727  11.7924  12.2912  12.7611
    13.4757  14.3469  16.8899  16.9391  17.5877  17.9342

     occupation numbers 
     0.0625   0.0625   0.0625   0.0625   0.0625   0.0625   0.0625   0.0625
     0.0625   0.0625   0.0625   0.0625   0.0625   0.0625   0.0625   0.0625
     0.0625   0.0625   0.0625   0.0625   0.0625   0.0625   0.0625   0.0625
     0.0625   0.0625   0.0625   0.0625   0.0625   0.0625   0.0625   0.0625
     0.0625   0.0612   0.0590   0.0589   0.0571   0.0564   0.0208   0.0012
     0.0000   0.0000   0.0000   0.0000   0.0000   0.0000

          k = 0.7412-0.4280-0.3080 (  2210 PWs)   bands (ev):

   -19.7219 -19.6817  -6.8933  -6.4293  -6.2810  -5.7698  -5.7180  -5.4539
    -3.0587  -3.0371  -2.9522  -2.7184  -2.6089  -2.4179   6.0125   6.3808
     6.9439   7.0205   7.2782   7.2815   7.6008   7.8987   8.0385   8.0777
     8.3741   9.0146   9.0263   9.5155   9.5524   9.5900   9.6699  10.2319
    11.1752  11.6001  11.6942  11.7025  11.8156  11.8574  12.2502  12.7091
    13.4198  14.3184  17.0660  17.0725  17.5553  17.9090

     occupation numbers 
     0.0625   0.0625   0.0625   0.0625   0.0625   0.0625   0.0625   0.0625
     0.0625   0.0625   0.0625   0.0625   0.0625   0.0625   0.0625   0.0625
     0.0625   0.0625   0.0625   0.0625   0.0625   0.0625   0.0625   0.0625
     0.0625   0.0625   0.0625   0.0625   0.0625   0.0625   0.0625   0.0625
     0.0625   0.0610   0.0593   0.0591   0.0555   0.0536   0.0241   0.0019
     0.0000   0.0000   0.0000   0.0000   0.0000   0.0000

          k = 0.4942-0.5706-0.2053 (  2206 PWs)   bands (ev):

   -19.7014 -19.7011  -6.8697  -6.8552  -6.0221  -6.0019  -5.3983  -5.3844
    -3.1428  -3.1424  -2.8010  -2.7975  -2.3739  -2.3710   6.0893   6.1112
     7.0158   7.0274   7.1538   7.1603   7.4330   7.4462   8.2011   8.2423
     8.7962   8.8099   9.0762   9.0869   9.5522   9.5617  10.1111  10.1180
    11.3893  11.3899  11.5896  11.5903  11.8573  11.8607  12.3234  12.3253
    14.0071  14.0161  17.4333  17.4354  17.8726  17.8738

     occupation numbers 
     0.0625   0.0625   0.0625   0.0625   0.0625   0.0625   0.0625   0.0625
     0.0625   0.0625   0.0625   0.0625   0.0625   0.0625   0.0625   0.0625
     0.0625   0.0625   0.0625   0.0625   0.0625   0.0625   0.0625   0.0625
     0.0625   0.0625   0.0625   0.0625   0.0625   0.0625   0.0625   0.0625
     0.0623   0.0623   0.0611   0.0611   0.0536   0.0535   0.0184   0.0182
     0.0000   0.0000   0.0000   0.0000   0.0000   0.0000

          k = 0.0000 0.0000-0.6160 (  2186 PWs)   bands (ev):

   -19.7038 -19.7025  -6.4986  -6.4769  -5.9178  -5.9165  -5.9141  -5.8881
    -2.8762  -2.8752  -2.8742  -2.8697  -2.7014  -2.6980   6.2999   6.3233
     7.2218   7.2387   7.2507   7.2560   7.8486   7.8807   8.1043   8.1058
     8.1352   8.1359   9.6494   9.6497   9.6636   9.6647   9.7147   9.7295
    11.6070  11.6101  11.6543  11.6566  11.6594  11.6601  13.2390  13.2419
    13.2676  13.2698  17.1204  17.1225  17.1238  17.1249

     occupation numbers 
     0.0313   0.0313   0.0313   0.0313   0.0313   0.0313   0.0313   0.0313
     0.0313   0.0313   0.0313   0.0313   0.0313   0.0313   0.0313   0.0313
     0.0313   0.0313   0.0313   0.0313   0.0313   0.0313   0.0313   0.0313
     0.0313   0.0313   0.0313   0.0313   0.0313   0.0313   0.0313   0.0313
     0.0304   0.0304   0.0301   0.0300   0.0300   0.0300   0.0000   0.0000
     0.0000   0.0000   0.0000   0.0000   0.0000   0.0000

          k =-0.2471 0.1427-0.1027 (  2181 PWs)   bands (ev):

   -19.7669 -19.6446  -6.7078  -6.2673  -5.9097  -5.8169  -5.5822  -5.4494
    -3.5672  -3.3778  -2.9161  -2.8938  -2.8312  -2.7487   5.5480   6.8774
     7.0319   7.0473   7.3423   7.5158   7.5712   7.8212   7.8683   8.6210
     8.7133   9.3514   9.6712   9.7985   9.8573  10.0335  10.3801  10.3951
    11.0390  11.0697  11.1529  11.8839  11.9352  11.9969  12.3591  12.4159
    14.3200  14.3257  15.8211  16.0746  16.9753  17.2704

     occupation numbers 
     0.0625   0.0625   0.0625   0.0625   0.0625   0.0625   0.0625   0.0625
     0.0625   0.0625   0.0625   0.0625   0.0625   0.0625   0.0625   0.0625
     0.0625   0.0625   0.0625   0.0625   0.0625   0.0625   0.0625   0.0625
     0.0625   0.0625   0.0625   0.0625   0.0625   0.0625   0.0625   0.0625
     0.0625   0.0625   0.0625   0.0523   0.0493   0.0451   0.0158   0.0121
     0.0000   0.0000   0.0000   0.0000   0.0000   0.0000

          k = 0.0000 0.2853 0.1027 (  2181 PWs)   bands (ev):

   -19.7669 -19.6446  -6.7076  -6.2672  -5.9081  -5.8196  -5.5830  -5.4474
    -3.5684  -3.3771  -2.9165  -2.8934  -2.8305  -2.7493   5.5488   6.8796
     7.0340   7.0436   7.3404   7.5107   7.5766   7.8241   7.8656   8.6181
     8.7181   9.3483   9.6645   9.8080   9.8548  10.0358  10.3810  10.3932
    11.0388  11.0703  11.1525  11.8835  11.9352  11.9967  12.3576  12.4176
    14.3180  14.3277  15.8200  16.0763  16.9758  17.2716

     occupation numbers 
     0.0625   0.0625   0.0625   0.0625   0.0625   0.0625   0.0625   0.0625
     0.0625   0.0625   0.0625   0.0625   0.0625   0.0625   0.0625   0.0625
     0.0625   0.0625   0.0625   0.0625   0.0625   0.0625   0.0625   0.0625
     0.0625   0.0625   0.0625   0.0625   0.0625   0.0625   0.0625   0.0625
     0.0625   0.0625   0.0625   0.0523   0.0493   0.0451   0.0159   0.0120
     0.0000   0.0000   0.0000   0.0000   0.0000   0.0000

          k = 0.4942-0.2853 0.2053 (  2202 PWs)   bands (ev):

   -19.7043 -19.7029  -6.7123  -6.6930  -5.9363  -5.9227  -5.4982  -5.4825
    -3.3663  -3.3635  -2.7755  -2.7723  -2.4998  -2.4958   6.0765   6.1009
     7.2206   7.2417   7.2889   7.3094   7.6589   7.6840   7.9778   8.0071
     8.1970   8.2258   9.5439   9.5477   9.8684   9.8885  10.2861  10.2984
    11.4766  11.4779  11.5559  11.5588  11.7212  11.7256  13.2988  13.3275
    13.3844  13.4138  16.8396  16.8445  17.1359  17.1397

     occupation numbers 
     0.0313   0.0313   0.0313   0.0313   0.0313   0.0313   0.0313   0.0313
     0.0313   0.0313   0.0313   0.0313   0.0313   0.0313   0.0313   0.0313
     0.0313   0.0313   0.0313   0.0313   0.0313   0.0313   0.0313   0.0313
     0.0313   0.0313   0.0313   0.0313   0.0312   0.0312   0.0312   0.0312
     0.0310   0.0310   0.0307   0.0307   0.0293   0.0293   0.0000   0.0000
     0.0000   0.0000   0.0000   0.0000   0.0000   0.0000

          k = 0.0000-0.5706-0.2053 (  2202 PWs)   bands (ev):

   -19.7043 -19.7029  -6.7125  -6.6923  -5.9373  -5.9225  -5.4969  -5.4830
    -3.3681  -3.3627  -2.7743  -2.7729  -2.5002  -2.4957   6.0792   6.1007
     7.2192   7.2448   7.2926   7.3077   7.6563   7.6752   7.9812   8.0126
     8.1920   8.2275   9.5377   9.5461   9.8790   9.8898  10.2849  10.2955
    11.4769  11.4784  11.5561  11.5589  11.7201  11.7251  13.2965  13.3271
    13.3867  13.4141  16.8401  16.8433  17.1377  17.1410

     occupation numbers 
     0.0313   0.0313   0.0313   0.0313   0.0313   0.0313   0.0313   0.0313
     0.0313   0.0313   0.0313   0.0313   0.0313   0.0313   0.0313   0.0313
     0.0313   0.0313   0.0313   0.0313   0.0313   0.0313   0.0313   0.0313
     0.0313   0.0313   0.0313   0.0313   0.0312   0.0312   0.0312   0.0312
     0.0310   0.0310   0.0307   0.0307   0.0293   0.0293   0.0000   0.0000
     0.0000   0.0000   0.0000   0.0000   0.0000   0.0000

          k =-0.2471-0.1427-0.2053 (  2195 PWs)   bands (ev):

   -19.7626 -19.6474  -6.8295  -6.2058  -6.0388  -5.8081  -5.6331  -5.4173
    -3.3936  -3.2528  -3.0860  -2.8742  -2.7973  -2.5492   5.5776   6.8540
     6.9304   7.1141   7.2470   7.4758   7.4891   7.8667   7.8815   8.6868
     8.9156   8.9182   9.2960   9.8033   9.9939  10.1019  10.2035  10.3008
    10.6898  11.3969  11.4226  11.5130  11.9339  12.0003  12.1741  12.7401
    13.6407  14.7892  15.9968  16.1980  17.0392  17.5395

     occupation numbers 
     0.0625   0.0625   0.0625   0.0625   0.0625   0.0625   0.0625   0.0625
     0.0625   0.0625   0.0625   0.0625   0.0625   0.0625   0.0625   0.0625
     0.0625   0.0625   0.0625   0.0625   0.0625   0.0625   0.0625   0.0625
     0.0625   0.0625   0.0625   0.0625   0.0625   0.0625   0.0625   0.0625
     0.0625   0.0623   0.0622   0.0618   0.0494   0.0449   0.0306   0.0015
     0.0000   0.0000   0.0000   0.0000   0.0000   0.0000

          k = 0.0000-0.2853 0.2053 (  2195 PWs)   bands (ev):

   -19.7626 -19.6474  -6.8295  -6.2057  -6.0389  -5.8081  -5.6331  -5.4173
    -3.3936  -3.2528  -3.0860  -2.8742  -2.7973  -2.5492   5.5776   6.8539
     6.9304   7.1141   7.2469   7.4786   7.4864   7.8671   7.8812   8.6869
     8.9126   8.9211   9.2960   9.8033   9.9939  10.1019  10.2035  10.3008
    10.6898  11.3969  11.4226  11.5130  11.9339  12.0003  12.1742  12.7401
    13.6406  14.7892  15.9968  16.1980  17.0392  17.5395

     occupation numbers 
     0.0625   0.0625   0.0625   0.0625   0.0625   0.0625   0.0625   0.0625
     0.0625   0.0625   0.0625   0.0625   0.0625   0.0625   0.0625   0.0625
     0.0625   0.0625   0.0625   0.0625   0.0625   0.0625   0.0625   0.0625
     0.0625   0.0625   0.0625   0.0625   0.0625   0.0625   0.0625   0.0625
     0.0625   0.0623   0.0622   0.0618   0.0494   0.0449   0.0306   0.0015
     0.0000   0.0000   0.0000   0.0000   0.0000   0.0000

          k = 0.4942-0.5706 0.1027 (  2198 PWs)   bands (ev):

   -19.7229 -19.6823  -6.9321  -6.6257  -6.1059  -5.8731  -5.4839  -5.3404
    -3.2897  -3.2416  -2.8657  -2.6930  -2.5158  -2.3718   5.9088   6.2866
     6.8785   7.0369   7.2375   7.3399   7.5678   7.8127   7.9330   8.1096
     8.3647   8.9205   9.1721   9.3607   9.6655   9.8274   9.9772  10.3679
    11.1036  11.5471  11.6336  11.7035  11.8372  11.8588  12.3388  12.7434
    13.4303  14.3651  16.9120  17.1159  17.3166  18.0202

     occupation numbers 
     0.0625   0.0625   0.0625   0.0625   0.0625   0.0625   0.0625   0.0625
     0.0625   0.0625   0.0625   0.0625   0.0625   0.0625   0.0625   0.0625
     0.0625   0.0625   0.0625   0.0625   0.0625   0.0625   0.0625   0.0625
     0.0625   0.0625   0.0625   0.0625   0.0625   0.0625   0.0625   0.0625
     0.0625   0.0615   0.0605   0.0591   0.0546   0.0536   0.0172   0.0014
     0.0000   0.0000   0.0000   0.0000   0.0000   0.0000

          k =-0.7412 0.1427-0.1027 (  2198 PWs)   bands (ev):

   -19.7229 -19.6823  -6.9316  -6.6267  -6.1048  -5.8740  -5.4829  -5.3412
    -3.2889  -3.2417  -2.8655  -2.6940  -2.5152  -2.3722   5.9100   6.2848
     6.8817   7.0366   7.2312   7.3433   7.5673   7.8109   7.9531   8.0862
     8.3715   8.9144   9.1769   9.3621   9.6671   9.8262   9.9774  10.3665
    11.1044  11.5459  11.6329  11.7038  11.8366  11.8599  12.3392  12.7437
    13.4304  14.3653  16.9101  17.1187  17.3160  18.0201

     occupation numbers 
     0.0625   0.0625   0.0625   0.0625   0.0625   0.0625   0.0625   0.0625
     0.0625   0.0625   0.0625   0.0625   0.0625   0.0625   0.0625   0.0625
     0.0625   0.0625   0.0625   0.0625   0.0625   0.0625   0.0625   0.0625
     0.0625   0.0625   0.0625   0.0625   0.0625   0.0625   0.0625   0.0625
     0.0625   0.0615   0.0605   0.0591   0.0546   0.0535   0.0172   0.0014
     0.0000   0.0000   0.0000   0.0000   0.0000   0.0000

          k = 0.2471-0.7133-0.1027 (  2198 PWs)   bands (ev):

   -19.7229 -19.6823  -6.9313  -6.6272  -6.1038  -5.8748  -5.4837  -5.3402
    -3.2890  -3.2418  -2.8651  -2.6949  -2.5152  -2.3719   5.9108   6.2849
     6.8836   7.0341   7.2295   7.3454   7.5679   7.8139   7.9501   8.0840
     8.3726   8.9149   9.1758   9.3594   9.6719   9.8234   9.9791  10.3659
    11.1043  11.5450  11.6334  11.7061  11.8352  11.8592  12.3393  12.7436
    13.4304  14.3653  16.9087  17.1209  17.3162  18.0211

     occupation numbers 
     0.0625   0.0625   0.0625   0.0625   0.0625   0.0625   0.0625   0.0625
     0.0625   0.0625   0.0625   0.0625   0.0625   0.0625   0.0625   0.0625
     0.0625   0.0625   0.0625   0.0625   0.0625   0.0625   0.0625   0.0625
     0.0625   0.0625   0.0625   0.0625   0.0625   0.0625   0.0625   0.0625
     0.0625   0.0615   0.0605   0.0590   0.0547   0.0535   0.0172   0.0014
     0.0000   0.0000   0.0000   0.0000   0.0000   0.0000

          k =-0.7412-0.1427 0.1027 (  2198 PWs)   bands (ev):

   -19.7229 -19.6823  -6.9319  -6.6261  -6.1051  -5.8739  -5.4846  -5.3394
    -3.2898  -3.2418  -2.8653  -2.6938  -2.5158  -2.3715   5.9095   6.2868
     6.8803   7.0344   7.2358   7.3420   7.5684   7.8155   7.9303   8.1074
     8.3658   8.9211   9.1711   9.3582   9.6702   9.8245   9.9788  10.3673
    11.1036  11.5461  11.6341  11.7057  11.8357  11.8580  12.3389  12.7433
    13.4303  14.3651  16.9106  17.1180  17.3168  18.0210

     occupation numbers 
     0.0625   0.0625   0.0625   0.0625   0.0625   0.0625   0.0625   0.0625
     0.0625   0.0625   0.0625   0.0625   0.0625   0.0625   0.0625   0.0625
     0.0625   0.0625   0.0625   0.0625   0.0625   0.0625   0.0625   0.0625
     0.0625   0.0625   0.0625   0.0625   0.0625   0.0625   0.0625   0.0625
     0.0625   0.0615   0.0605   0.0591   0.0546   0.0536   0.0172   0.0014
     0.0000   0.0000   0.0000   0.0000   0.0000   0.0000

          k = 0.2471 0.7133 0.1027 (  2198 PWs)   bands (ev):

   -19.7221 -19.6819  -6.9413  -6.6238  -6.1147  -5.8558  -5.4744  -5.3512
    -3.2906  -3.2420  -2.8641  -2.6956  -2.5167  -2.3745   5.9220   6.2727
     6.8932   7.0432   7.2407   7.3526   7.5598   7.8090   7.9317   8.1109
     8.3559   8.9246   9.1603   9.3544   9.6718   9.8227   9.9752  10.3738
    11.1045  11.5452  11.6339  11.7052  11.8369  11.8555  12.3401  12.7437
    13.4263  14.3671  16.9120  17.1178  17.3172  18.0206

     occupation numbers 
     0.0625   0.0625   0.0625   0.0625   0.0625   0.0625   0.0625   0.0625
     0.0625   0.0625   0.0625   0.0625   0.0625   0.0625   0.0625   0.0625
     0.0625   0.0625   0.0625   0.0625   0.0625   0.0625   0.0625   0.0625
     0.0625   0.0625   0.0625   0.0625   0.0625   0.0625   0.0625   0.0625
     0.0625   0.0615   0.0605   0.0591   0.0546   0.0537   0.0171   0.0014
     0.0000   0.0000   0.0000   0.0000   0.0000   0.0000

          k = 0.2471-0.4280 0.0000 (  2203 PWs)   bands (ev):

   -19.7322 -19.6747  -6.8293  -6.6130  -6.0355  -5.9490  -5.4033  -5.3334
    -3.4946  -3.2840  -2.7884  -2.7002  -2.5556  -2.5434   5.8934   6.3240
     7.0898   7.1383   7.2320   7.3238   7.4679   7.7286   7.8308   8.1928
     8.4310   8.9464   9.4319   9.4803   9.7781   9.8011  10.0715  10.3698
    11.4033  11.4140  11.4433  11.6635  11.6747  11.9564  12.2871  13.3257
    13.3974  14.1623  16.4420  16.9970  17.4244  17.9324

     occupation numbers 
     0.0625   0.0625   0.0625   0.0625   0.0625   0.0625   0.0625   0.0625
     0.0625   0.0625   0.0625   0.0625   0.0625   0.0625   0.0625   0.0625
     0.0625   0.0625   0.0625   0.0625   0.0625   0.0625   0.0625   0.0625
     0.0625   0.0625   0.0625   0.0625   0.0625   0.0625   0.0625   0.0625
     0.0622   0.0622   0.0621   0.0600   0.0597   0.0479   0.0211   0.0000
     0.0000   0.0000   0.0000   0.0000   0.0000   0.0000

          k =-0.4942 0.0000 0.0000 (  2203 PWs)   bands (ev):

   -19.7322 -19.6747  -6.8293  -6.6129  -6.0355  -5.9491  -5.4033  -5.3334
    -3.4946  -3.2841  -2.7884  -2.7002  -2.5558  -2.5432   5.8934   6.3240
     7.0898   7.1377   7.2334   7.3229   7.4678   7.7285   7.8310   8.1928
     8.4310   8.9465   9.4319   9.4802   9.7779   9.8015  10.0714  10.3698
    11.4032  11.4140  11.4434  11.6634  11.6747  11.9564  12.2871  13.3257
    13.3974  14.1623  16.4420  16.9970  17.4244  17.9309

     occupation numbers 
     0.0625   0.0625   0.0625   0.0625   0.0625   0.0625   0.0625   0.0625
     0.0625   0.0625   0.0625   0.0625   0.0625   0.0625   0.0625   0.0625
     0.0625   0.0625   0.0625   0.0625   0.0625   0.0625   0.0625   0.0625
     0.0625   0.0625   0.0625   0.0625   0.0625   0.0625   0.0625   0.0625
     0.0622   0.0622   0.0621   0.0600   0.0597   0.0479   0.0211   0.0000
     0.0000   0.0000   0.0000   0.0000   0.0000   0.0000

          k = 0.4942 0.2853 0.4107 (  2202 PWs)   bands (ev):

   -19.7302 -19.6732  -7.1406  -6.4363  -6.2181  -5.9413  -5.5131  -5.2441
    -3.1785  -3.1176  -3.0293  -2.6386  -2.4685  -2.2094   5.8056   6.3311
     6.4511   6.9252   7.1445   7.2519   7.8847   7.9192   8.1582   8.3247
     8.5939   8.5976   8.6462   9.4262   9.6780  10.0395  10.0751  10.4434
    10.6550  11.2999  11.5702  11.7569  11.8632  11.9760  12.0698  12.4594
    13.3300  14.8011  17.0456  17.2697  17.5246  17.6103

     occupation numbers 
     0.0313   0.0313   0.0313   0.0313   0.0313   0.0313   0.0313   0.0313
     0.0313   0.0313   0.0313   0.0313   0.0313   0.0313   0.0313   0.0313
     0.0313   0.0313   0.0313   0.0313   0.0313   0.0313   0.0313   0.0313
     0.0313   0.0313   0.0313   0.0313   0.0313   0.0312   0.0312   0.0312
     0.0312   0.0312   0.0306   0.0288   0.0267   0.0233   0.0197   0.0049
     0.0000   0.0000   0.0000   0.0000   0.0000   0.0000

          k = 0.0000 0.5706-0.4107 (  2202 PWs)   bands (ev):

   -19.7302 -19.6732  -7.1406  -6.4362  -6.2182  -5.9413  -5.5131  -5.2442
    -3.1785  -3.1176  -3.0293  -2.6386  -2.4685  -2.2094   5.8056   6.3311
     6.4511   6.9252   7.1445   7.2519   7.8857   7.9181   8.1581   8.3249
     8.5939   8.5976   8.6462   9.4261   9.6780  10.0393  10.0752  10.4435
    10.6549  11.2999  11.5702  11.7569  11.8632  11.9760  12.0698  12.4594
    13.3300  14.8011  17.0456  17.2697  17.5246  17.6103

     occupation numbers 
     0.0313   0.0313   0.0313   0.0313   0.0313   0.0313   0.0313   0.0313
     0.0313   0.0313   0.0313   0.0313   0.0313   0.0313   0.0313   0.0313
     0.0313   0.0313   0.0313   0.0313   0.0313   0.0313   0.0313   0.0313
     0.0313   0.0313   0.0313   0.0313   0.0313   0.0312   0.0312   0.0312
     0.0312   0.0312   0.0306   0.0288   0.0267   0.0233   0.0197   0.0049
     0.0000   0.0000   0.0000   0.0000   0.0000   0.0000

          k = 0.7412-0.4280 0.0000 (  2204 PWs)   bands (ev):

   -19.7321 -19.6743  -6.7099  -6.5855  -6.1195  -5.8030  -5.6399  -5.5225
    -3.1558  -3.0766  -3.0353  -2.6630  -2.6407  -2.5723   5.9215   6.5153
     7.0985   7.2096   7.2419   7.3475   7.4473   7.6753   8.0123   8.1580
     8.4686   8.8378   9.4751   9.4871   9.6189   9.6891   9.8639  10.2267
    11.4031  11.4168  11.5134  11.6953  11.7223  11.8846  12.2965  13.2521
    13.3149  14.1824  16.6941  16.7278  17.5951  17.7995

     occupation numbers 
     0.0625   0.0625   0.0625   0.0625   0.0625   0.0625   0.0625   0.0625
     0.0625   0.0625   0.0625   0.0625   0.0625   0.0625   0.0625   0.0625
     0.0625   0.0625   0.0625   0.0625   0.0625   0.0625   0.0625   0.0625
     0.0625   0.0625   0.0625   0.0625   0.0625   0.0625   0.0625   0.0625
     0.0622   0.0622   0.0618   0.0593   0.0586   0.0522   0.0204   0.0000
     0.0000   0.0000   0.0000   0.0000   0.0000   0.0000

          k = 0.0000-0.8559 0.0000 (  2204 PWs)   bands (ev):

   -19.7319 -19.6744  -6.7145  -6.5768  -6.1243  -5.8068  -5.6459  -5.5115
    -3.1544  -3.0767  -3.0353  -2.6650  -2.6433  -2.5698   5.9343   6.5063
     7.1019   7.2062   7.2344   7.3457   7.4573   7.6695   8.0117   8.1487
     8.4590   8.8520   9.4784   9.5019   9.6173   9.6884   9.8637  10.2227
    11.4010  11.4150  11.5125  11.6947  11.7208  11.8868  12.2975  13.2502
    13.3129  14.1856  16.6956  16.7268  17.5937  17.7992

     occupation numbers 
     0.0625   0.0625   0.0625   0.0625   0.0625   0.0625   0.0625   0.0625
     0.0625   0.0625   0.0625   0.0625   0.0625   0.0625   0.0625   0.0625
     0.0625   0.0625   0.0625   0.0625   0.0625   0.0625   0.0625   0.0625
     0.0625   0.0625   0.0625   0.0625   0.0625   0.0625   0.0625   0.0625
     0.0623   0.0622   0.0618   0.0593   0.0587   0.0521   0.0203   0.0000
     0.0000   0.0000   0.0000   0.0000   0.0000   0.0000

          k = 0.4942-0.2853-0.1027 (  2211 PWs)   bands (ev):

   -19.7221 -19.6819  -6.9570  -6.5223  -6.3019  -5.6643  -5.5890  -5.3252
    -3.3028  -3.1557  -3.0158  -2.5936  -2.5484  -2.3678   5.9530   6.2393
     6.8519   7.0327   7.2317   7.2946   7.5812   7.8804   7.9894   8.0451
     8.3978   9.0494   9.1638   9.4125   9.5553   9.6698  10.0272  10.3965
    11.1196  11.5798  11.7057  11.7126  11.7739  11.7921  12.2924  12.7613
    13.4717  14.3489  16.8905  16.9388  17.5872  17.9345

     occupation numbers 
     0.0625   0.0625   0.0625   0.0625   0.0625   0.0625   0.0625   0.0625
     0.0625   0.0625   0.0625   0.0625   0.0625   0.0625   0.0625   0.0625
     0.0625   0.0625   0.0625   0.0625   0.0625   0.0625   0.0625   0.0625
     0.0625   0.0625   0.0625   0.0625   0.0625   0.0625   0.0625   0.0625
     0.0625   0.0612   0.0591   0.0589   0.0571   0.0564   0.0207   0.0012
     0.0000   0.0000   0.0000   0.0000   0.0000   0.0000

          k = 0.0000-0.5706 0.1027 (  2211 PWs)   bands (ev):

   -19.7229 -19.6823  -6.9481  -6.5239  -6.3003  -5.6692  -5.6020  -5.3157
    -3.3026  -3.1556  -3.0155  -2.5919  -2.5482  -2.3649   5.9407   6.2540
     6.8386   7.0259   7.2243   7.2897   7.5853   7.8843   7.9861   8.0485
     8.4060   9.0425   9.1740   9.4091   9.5519   9.6861  10.0293  10.3887
    11.1185  11.5805  11.7076  11.7133  11.7727  11.7925  12.2912  12.7611
    13.4757  14.3469  16.8899  16.9391  17.5877  17.9342

     occupation numbers 
     0.0625   0.0625   0.0625   0.0625   0.0625   0.0625   0.0625   0.0625
     0.0625   0.0625   0.0625   0.0625   0.0625   0.0625   0.0625   0.0625
     0.0625   0.0625   0.0625   0.0625   0.0625   0.0625   0.0625   0.0625
     0.0625   0.0625   0.0625   0.0625   0.0625   0.0625   0.0625   0.0625
     0.0625   0.0612   0.0590   0.0589   0.0571   0.0564   0.0208   0.0012
     0.0000   0.0000   0.0000   0.0000   0.0000   0.0000

          k = 0.7412 0.4280 0.3080 (  2210 PWs)   bands (ev):

   -19.7227 -19.6821  -6.8836  -6.4310  -6.2776  -5.7781  -5.7319  -5.4424
    -3.0581  -3.0376  -2.9534  -2.7160  -2.6075  -2.4151   5.9986   6.3985
     6.9298   7.0130   7.2674   7.2756   7.6080   7.9042   8.0337   8.0792
     8.3824   9.0123   9.0323   9.5276   9.5513   9.5937   9.6695  10.2238
    11.1743  11.6021  11.6927  11.7034  11.8168  11.8576  12.2492  12.7088
    13.4237  14.3163  17.0649  17.0724  17.5561  17.9085

     occupation numbers 
     0.0625   0.0625   0.0625   0.0625   0.0625   0.0625   0.0625   0.0625
     0.0625   0.0625   0.0625   0.0625   0.0625   0.0625   0.0625   0.0625
     0.0625   0.0625   0.0625   0.0625   0.0625   0.0625   0.0625   0.0625
     0.0625   0.0625   0.0625   0.0625   0.0625   0.0625   0.0625   0.0625
     0.0625   0.0609   0.0594   0.0591   0.0555   0.0536   0.0242   0.0019
     0.0000   0.0000   0.0000   0.0000   0.0000   0.0000

          k = 0.0000 0.8559-0.3080 (  2210 PWs)   bands (ev):

   -19.7227 -19.6821  -6.8835  -6.4311  -6.2776  -5.7782  -5.7319  -5.4424
    -3.0581  -3.0376  -2.9534  -2.7160  -2.6075  -2.4152   5.9986   6.3985
     6.9298   7.0131   7.2683   7.2747   7.6080   7.9041   8.0313   8.0821
     8.3819   9.0118   9.0327   9.5278   9.5510   9.5939   9.6694  10.2239
    11.1743  11.6021  11.6929  11.7033  11.8168  11.8576  12.2492  12.7088
    13.4237  14.3163  17.0648  17.0725  17.5561  17.9084

     occupation numbers 
     0.0625   0.0625   0.0625   0.0625   0.0625   0.0625   0.0625   0.0625
     0.0625   0.0625   0.0625   0.0625   0.0625   0.0625   0.0625   0.0625
     0.0625   0.0625   0.0625   0.0625   0.0625   0.0625   0.0625   0.0625
     0.0625   0.0625   0.0625   0.0625   0.0625   0.0625   0.0625   0.0625
     0.0625   0.0609   0.0594   0.0591   0.0555   0.0536   0.0242   0.0019
     0.0000   0.0000   0.0000   0.0000   0.0000   0.0000

          k = 0.2471 0.7133-0.2053 (  2206 PWs)   bands (ev):

   -19.7014 -19.7011  -6.8699  -6.8550  -6.0224  -6.0017  -5.3983  -5.3845
    -3.1428  -3.1424  -2.8009  -2.7975  -2.3743  -2.3706   6.0894   6.1111
     7.0168   7.0264   7.1535   7.1608   7.4334   7.4458   8.2017   8.2416
     8.7961   8.8101   9.0763   9.0868   9.5508   9.5630  10.1106  10.1185
    11.3894  11.3899  11.5894  11.5905  11.8572  11.8608  12.3232  12.3254
    14.0071  14.0161  17.4337  17.4351  17.8712  17.8751

     occupation numbers 
     0.0625   0.0625   0.0625   0.0625   0.0625   0.0625   0.0625   0.0625
     0.0625   0.0625   0.0625   0.0625   0.0625   0.0625   0.0625   0.0625
     0.0625   0.0625   0.0625   0.0625   0.0625   0.0625   0.0625   0.0625
     0.0625   0.0625   0.0625   0.0625   0.0625   0.0625   0.0625   0.0625
     0.0623   0.0623   0.0611   0.0611   0.0536   0.0535   0.0184   0.0182
     0.0000   0.0000   0.0000   0.0000   0.0000   0.0000

          k =-0.7412-0.1427-0.2053 (  2206 PWs)   bands (ev):

   -19.7019 -19.7018  -6.8682  -6.8441  -6.0215  -6.0200  -5.3993  -5.3775
    -3.1426  -3.1412  -2.8011  -2.8000  -2.3742  -2.3646   6.0933   6.1120
     7.0116   7.0150   7.1332   7.1595   7.4326   7.4344   8.2132   8.2485
     8.8123   8.8143   9.0797   9.0811   9.5644   9.5680  10.1078  10.1090
    11.3865  11.3871  11.5894  11.5904  11.8605  11.8608  12.3224  12.3254
    14.0078  14.0168  17.4346  17.4353  17.8708  17.8732

     occupation numbers 
     0.0625   0.0625   0.0625   0.0625   0.0625   0.0625   0.0625   0.0625
     0.0625   0.0625   0.0625   0.0625   0.0625   0.0625   0.0625   0.0625
     0.0625   0.0625   0.0625   0.0625   0.0625   0.0625   0.0625   0.0625
     0.0625   0.0625   0.0625   0.0625   0.0625   0.0625   0.0625   0.0625
     0.0623   0.0623   0.0611   0.0611   0.0535   0.0535   0.0184   0.0182
     0.0000   0.0000   0.0000   0.0000   0.0000   0.0000

     the Fermi energy is    12.1667 ev

!    total energy              =    -538.37301654 Ry
     Harris-Foulkes estimate   =    -538.37301654 Ry
     estimated scf accuracy    <          9.6E-10 Ry

     The total energy is the sum of the following terms:

     one-electron contribution =     -32.89580403 Ry
     hartree contribution      =      83.60795927 Ry
     xc contribution           =    -199.55606617 Ry
     ewald contribution        =    -389.44315552 Ry
     Hubbard energy            =      -0.03997778 Ry
     smearing contrib. (-TS)   =      -0.04597230 Ry

     convergence has been achieved in   8 iterations

     init_run     :      6.80s CPU      6.92s WALL (       1 calls)
     electrons    :    315.70s CPU    319.51s WALL (       1 calls)

     Called by init_run:
     wfcinit      :      0.00s CPU      0.00s WALL (       1 calls)
     potinit      :      0.27s CPU      0.30s WALL (       1 calls)

     Called by electrons:
     c_bands      :    243.93s CPU    246.45s WALL (       8 calls)
     sum_band     :     52.21s CPU     52.96s WALL (       8 calls)
     v_of_rho     :      2.49s CPU      2.51s WALL (       9 calls)
     v_h          :      0.15s CPU      0.15s WALL (       9 calls)
     v_xc         :      2.34s CPU      2.36s WALL (       9 calls)
     newd         :     18.17s CPU     18.30s WALL (       9 calls)
     mix_rho      :      0.25s CPU      0.25s WALL (       8 calls)

     Called by c_bands:
     init_us_2    :      2.48s CPU      2.48s WALL (     576 calls)
     cegterg      :    237.33s CPU    239.26s WALL (     288 calls)

     Called by sum_band:
     sum_band:bec :      0.22s CPU      0.22s WALL (     288 calls)
     addusdens    :     10.24s CPU     10.24s WALL (       8 calls)

     Called by *egterg:
     h_psi        :    174.45s CPU    176.07s WALL (    1327 calls)
     s_psi        :      9.54s CPU      9.55s WALL (    1327 calls)
     g_psi        :      0.74s CPU      0.72s WALL (    1039 calls)
     cdiaghg      :     19.73s CPU     19.77s WALL (    1291 calls)
     cegterg:over :     12.19s CPU     12.23s WALL (    1039 calls)
     cegterg:upda :      7.92s CPU      7.95s WALL (    1039 calls)
     cegterg:last :      5.09s CPU      5.11s WALL (     324 calls)

     Called by h_psi:
     h_psi:vloc   :    141.94s CPU    143.37s WALL (    1327 calls)
     h_psi:vnl    :     20.88s CPU     20.93s WALL (    1327 calls)
     add_vuspsi   :      9.92s CPU      9.91s WALL (    1327 calls)
     vhpsi        :     11.10s CPU     11.22s WALL (    1327 calls)

     General routines
     calbec       :     22.24s CPU     22.44s WALL (    3230 calls)
     fft          :      1.74s CPU      1.81s WALL (     139 calls)
     ffts         :      0.04s CPU      0.11s WALL (      17 calls)
     fftw         :    128.76s CPU    130.31s WALL (   82330 calls)
     interpolate  :      0.29s CPU      0.42s WALL (      17 calls)
     davcio       :      0.01s CPU      0.95s WALL (     612 calls)

     Parallel routines
     fft_scatter  :     40.63s CPU     42.05s WALL (   82486 calls)
     Hubbard U routines
     new_ns       :      2.13s CPU      2.56s WALL (       8 calls)
     vhpsi        :     11.10s CPU     11.22s WALL (    1327 calls)

     PWSCF        :  5m22.91s CPU     5m27.03s WALL


   This run was terminated on:   8: 4:22  11Nov2012            

=------------------------------------------------------------------------------=
