   JOB DONE.
=------------------------------------------------------------------------------=

     Program PWSCF v.5.0.1 starts on 11Nov2012 at  8: 8:31 

     This program is part of the open-source Quantum ESPRESSO suite
     for quantum simulation of materials; please cite
         "P. Giannozzi et al., J. Phys.:Condens. Matter 21 395502 (2009);
          URL http://www.quantum-espresso.org", 
     in publications or presentations arising from this work. More details at
     http://www.quantum-espresso.org/quote.php

     Parallel version (MPI), running on     2 processors
     R & G space division:  proc/pool =    2

     Current dimensions of program PWSCF are:
     Max number of different atomic species (ntypx) = 10
     Max number of k-points (npk) =  40000
     Max angular momentum in pseudopotentials (lmaxx) =  3
     Reading input from CoLaO_U0_a0.in
               file Co.pbe-nd-rrkjus.UPF: wavefunction(s)  4S 3D renormalized
               file O.pbe-rrkjus.UPF: wavefunction(s)  2S renormalized
               file O.pbe-rrkjus.UPF: wavefunction(s)  2S renormalized

     Subspace diagonalization in iterative solution of the eigenvalue problem:
     a serial algorithm will be used


     Parallelization info
     --------------------
     sticks:   dense  smooth     PW     G-vecs:    dense   smooth      PW
     Min        1112     444    131                34808     8786    1448
     Max        1113     445    132                34809     8787    1449
     Sum        2225     889    263                69617    17573    2897


     Title: 
     GGA + U, U = 1D-40, alpha = 1D-40                                          


     bravais-lattice index     =            5
     lattice parameter (alat)  =      10.3292  a.u.
     unit-cell volume          =     793.0599 (a.u.)^3
     number of atoms/cell      =           10
     number of atomic types    =            4
     number of electrons       =        76.00
     number of Kohn-Sham states=           46
     kinetic-energy cutoff     =      30.0000  Ry
     charge density cutoff     =     300.0000  Ry
     convergence threshold     =      1.0E-08
     mixing beta               =       0.2000
     number of iterations used =            8  plain     mixing
     Exchange-correlation      =  SLA  PW   PBE  PBE ( 1 4 3 4 0)
     EXX-fraction              =        0.00

     celldm(1)=  10.329242  celldm(2)=   0.000000  celldm(3)=   0.000000
     celldm(4)=   0.488100  celldm(5)=   0.000000  celldm(6)=   0.000000

     crystal axes: (cart. coord. in units of alat)
               a(1) = (   0.505915  -0.292090   0.811624 )  
               a(2) = (   0.000000   0.584180   0.811624 )  
               a(3) = (  -0.505915  -0.292090   0.811624 )  

     reciprocal axes: (cart. coord. in units 2 pi/alat)
               b(1) = (  0.988308 -0.570600  0.410699 )  
               b(2) = (  0.000000  1.141200  0.410699 )  
               b(3) = ( -0.988308 -0.570600  0.410699 )  


     PseudoPot. # 1 for Co read from file:
     /home/mcurnan/dft-course/Project1/example_LaCoO3/Co.pbe-nd-rrkjus.UPF
     MD5 check sum: 3e47a84addf5e975e0edeaeee2a73f59
     Pseudo is Ultrasoft + core correction, Zval =  9.0
     Generated by new atomic code, or converted to UPF format
     Using radial grid of  961 points,  6 beta functions with: 
                l(1) =   0
                l(2) =   0
                l(3) =   1
                l(4) =   1
                l(5) =   2
                l(6) =   2
     Q(r) pseudized with 0 coefficients 


     PseudoPot. # 2 for La read from file:
     /home/mcurnan/dft-course/Project1/example_LaCoO3/La.pbe-nsp-van.UPF
     MD5 check sum: b2f11743f52dde65f77d1302becd7929
     Pseudo is Ultrasoft + core correction, Zval = 11.0
     Generated by new atomic code, or converted to UPF format
     Using radial grid of  907 points,  6 beta functions with: 
                l(1) =   0
                l(2) =   0
                l(3) =   1
                l(4) =   1
                l(5) =   2
                l(6) =   2
     Q(r) pseudized with  6 coefficients,  rinner =    1.200   1.200   1.200
                                                       1.200   1.200

     PseudoPot. # 3 for O  read from file:
     /home/mcurnan/dft-course/Project1/example_LaCoO3/O.pbe-rrkjus.UPF
     MD5 check sum: 390ba29e75625707450f3bd3f0eb6be9
     Pseudo is Ultrasoft, Zval =  6.0
     Generated by new atomic code, or converted to UPF format
     Using radial grid of 1269 points,  4 beta functions with: 
                l(1) =   0
                l(2) =   0
                l(3) =   1
                l(4) =   1
     Q(r) pseudized with 0 coefficients 


     PseudoPot. # 4 for O  read from file:
     /home/mcurnan/dft-course/Project1/example_LaCoO3/O.pbe-rrkjus.UPF
     MD5 check sum: 390ba29e75625707450f3bd3f0eb6be9
     Pseudo is Ultrasoft, Zval =  6.0
     Generated by new atomic code, or converted to UPF format
     Using radial grid of 1269 points,  4 beta functions with: 
                l(1) =   0
                l(2) =   0
                l(3) =   1
                l(4) =   1
     Q(r) pseudized with 0 coefficients 


     atomic species   valence    mass     pseudopotential
        Co1            9.00     1.00000     Co( 1.00)
        La1           11.00     1.00000     La( 1.00)
        O1             6.00     1.00000     O ( 1.00)
        O2             6.00     1.00000     O ( 1.00)
 -----
     simplified LDA+U calculation, Hubbard_lmax = 2
     atomic species  L   Hubbard U  Hubbard alpha
        Co1          2    0.000000    0.000000
        La1          2    0.000000    0.000000
        O1           1    0.000000    0.000000
        O2           1    0.000000    0.000000
 -----

     No symmetry found


                                    s                        frac. trans.

      isym =  1     identity                                     

 cryst.   s( 1) = (     1          0          0      )
                  (     0          1          0      )
                  (     0          0          1      )

 cart.    s( 1) = (  1.0000000  0.0000000  0.0000000 )
                  (  0.0000000  1.0000000  0.0000000 )
                  (  0.0000000  0.0000000  1.0000000 )


     point group C_1 (1)    
     there are  1 classes
     the character table:

       E    
A      1.00

     the symmetry operations in each class:
     E        1

   Cartesian axes

     site n.     atom                  positions (alat units)
         1           Co1 tau(   1) = (   0.2228050  -0.1992639   1.0141240  )
         2           Co1 tau(   2) = (  -0.2831100   0.0928263   1.4199360  )
         3           La1 tau(   3) = (  -0.2831100   0.0928263   0.8112181  )
         4           La1 tau(   4) = (   0.2228050   0.3849164   1.2170300  )
         5           O1  tau(   5) = (   0.0000000   0.0000000   0.0000000  )
         6           O2  tau(   6) = (   0.0008601   0.1861491   1.6232478  )
         7           O2  tau(   7) = (   0.1616398   0.0923297   0.8116239  )
         8           O2  tau(   8) = (  -0.0603051  -0.1064377   1.2166242  )
         9           O2  tau(   9) = (   0.4447499  -0.0004966   1.2166242  )
        10           O2  tau(  10) = (  -0.2219449   0.3854130   1.2166242  )

   Crystallographic axes

     site n.     atom                  positions (cryst. coord.)
         1           Co1 tau(   1) = (  0.7504000  0.1891000  0.3100000  )
         2           Co1 tau(   2) = (  0.2504000  0.6891000  0.8100000  )
         3           La1 tau(   3) = (  0.0004000  0.4391000  0.5600000  )
         4           La1 tau(   4) = (  0.5004000  0.9391000  0.0600000  )
         5           O1  tau(   5) = (  0.0000000  0.0000000  0.0000000  )
         6           O2  tau(   6) = (  0.5613000  0.8791000  0.5596000  )
         7           O2  tau(   7) = (  0.4404000  0.4387000  0.1209000  )
         8           O2  tau(   8) = (  0.5008000  0.3782000  0.6200000  )
         9           O2  tau(   9) = (  0.9395000  0.4991000  0.0604000  )
        10           O2  tau(  10) = (  0.0604000  0.9395000  0.4991000  )

     number of k points=    36  gaussian smearing, width (Ry)=  0.0300
                       cart. coord. in units 2pi/alat
        k(    1) = (   0.0000000   0.0000000   0.0000000), wk =   0.0312500
        k(    2) = (  -0.2470771  -0.1426500   0.1026748), wk =   0.0625000
        k(    3) = (   0.4941541   0.2853000  -0.2053496), wk =   0.0312500
        k(    4) = (  -0.2470771   0.1426500   0.2053496), wk =   0.0625000
        k(    5) = (   0.4941541   0.5706001  -0.1026748), wk =   0.0625000
        k(    6) = (   0.2470771   0.4279500   0.0000000), wk =   0.0625000
        k(    7) = (   0.4941541  -0.2853000  -0.4106993), wk =   0.0312500
        k(    8) = (   0.0000000   0.0000000   0.3080244), wk =   0.0625000
        k(    9) = (   0.7412312   0.4279500   0.0000000), wk =   0.0625000
        k(   10) = (   0.4941541   0.2853000   0.1026748), wk =   0.0625000
        k(   11) = (   0.7412312  -0.4279500  -0.3080244), wk =   0.0625000
        k(   12) = (   0.4941541  -0.5706001  -0.2053496), wk =   0.0625000
        k(   13) = (   0.0000000   0.0000000  -0.6160489), wk =   0.0312500
        k(   14) = (  -0.2470771   0.1426500  -0.1026748), wk =   0.0625000
        k(   15) = (   0.0000000   0.2853000   0.1026748), wk =   0.0625000
        k(   16) = (   0.4941541  -0.2853000   0.2053496), wk =   0.0312500
        k(   17) = (   0.0000000  -0.5706001  -0.2053496), wk =   0.0312500
        k(   18) = (  -0.2470771  -0.1426500  -0.2053496), wk =   0.0625000
        k(   19) = (   0.0000000  -0.2853000   0.2053496), wk =   0.0625000
        k(   20) = (   0.4941541  -0.5706001   0.1026748), wk =   0.0625000
        k(   21) = (  -0.7412312   0.1426500  -0.1026748), wk =   0.0625000
        k(   22) = (   0.2470771  -0.7132501  -0.1026748), wk =   0.0625000
        k(   23) = (  -0.7412312  -0.1426500   0.1026748), wk =   0.0625000
        k(   24) = (   0.2470771   0.7132501   0.1026748), wk =   0.0625000
        k(   25) = (   0.2470771  -0.4279500   0.0000000), wk =   0.0625000
        k(   26) = (  -0.4941541   0.0000000   0.0000000), wk =   0.0625000
        k(   27) = (   0.4941541   0.2853000   0.4106993), wk =   0.0312500
        k(   28) = (   0.0000000   0.5706001  -0.4106993), wk =   0.0312500
        k(   29) = (   0.7412312  -0.4279500   0.0000000), wk =   0.0625000
        k(   30) = (   0.0000000  -0.8559001   0.0000000), wk =   0.0625000
        k(   31) = (   0.4941541  -0.2853000  -0.1026748), wk =   0.0625000
        k(   32) = (   0.0000000  -0.5706001   0.1026748), wk =   0.0625000
        k(   33) = (   0.7412312   0.4279500   0.3080244), wk =   0.0625000
        k(   34) = (   0.0000000   0.8559001  -0.3080244), wk =   0.0625000
        k(   35) = (   0.2470771   0.7132501  -0.2053496), wk =   0.0625000
        k(   36) = (  -0.7412312  -0.1426500  -0.2053496), wk =   0.0625000

                       cryst. coord.
        k(    1) = (   0.0000000   0.0000000   0.0000000), wk =   0.0312500
        k(    2) = (   0.0000000   0.0000000   0.2500000), wk =   0.0625000
        k(    3) = (   0.0000000   0.0000000  -0.5000000), wk =   0.0312500
        k(    4) = (   0.0000000   0.2500000   0.2500000), wk =   0.0625000
        k(    5) = (   0.0000000   0.2500000  -0.5000000), wk =   0.0625000
        k(    6) = (   0.0000000   0.2500000  -0.2500000), wk =   0.0625000
        k(    7) = (   0.0000000  -0.5000000  -0.5000000), wk =   0.0312500
        k(    8) = (   0.2500000   0.2500000   0.2500000), wk =   0.0625000
        k(    9) = (   0.2500000   0.2500000  -0.5000000), wk =   0.0625000
        k(   10) = (   0.2500000   0.2500000  -0.2500000), wk =   0.0625000
        k(   11) = (   0.2500000  -0.5000000  -0.5000000), wk =   0.0625000
        k(   12) = (   0.2500000  -0.5000000  -0.2500000), wk =   0.0625000
        k(   13) = (  -0.5000000  -0.5000000  -0.5000000), wk =   0.0312500
        k(   14) = (  -0.2500000   0.0000000   0.0000000), wk =   0.0625000
        k(   15) = (   0.0000000   0.2500000   0.0000000), wk =   0.0625000
        k(   16) = (   0.5000000   0.0000000   0.0000000), wk =   0.0312500
        k(   17) = (   0.0000000  -0.5000000   0.0000000), wk =   0.0312500
        k(   18) = (  -0.2500000  -0.2500000   0.0000000), wk =   0.0625000
        k(   19) = (   0.2500000   0.0000000   0.2500000), wk =   0.0625000
        k(   20) = (   0.5000000  -0.2500000   0.0000000), wk =   0.0625000
        k(   21) = (  -0.5000000   0.0000000   0.2500000), wk =   0.0625000
        k(   22) = (   0.2500000  -0.5000000   0.0000000), wk =   0.0625000
        k(   23) = (  -0.2500000   0.0000000   0.5000000), wk =   0.0625000
        k(   24) = (   0.0000000   0.5000000  -0.2500000), wk =   0.0625000
        k(   25) = (   0.2500000  -0.2500000   0.0000000), wk =   0.0625000
        k(   26) = (  -0.2500000   0.0000000   0.2500000), wk =   0.0625000
        k(   27) = (   0.5000000   0.5000000   0.0000000), wk =   0.0312500
        k(   28) = (  -0.5000000   0.0000000  -0.5000000), wk =   0.0312500
        k(   29) = (   0.5000000  -0.2500000  -0.2500000), wk =   0.0625000
        k(   30) = (   0.2500000  -0.5000000   0.2500000), wk =   0.0625000
        k(   31) = (   0.2500000  -0.2500000  -0.2500000), wk =   0.0625000
        k(   32) = (   0.2500000  -0.2500000   0.2500000), wk =   0.0625000
        k(   33) = (   0.5000000   0.5000000  -0.2500000), wk =   0.0625000
        k(   34) = (  -0.5000000   0.2500000  -0.5000000), wk =   0.0625000
        k(   35) = (  -0.2500000   0.2500000  -0.5000000), wk =   0.0625000
        k(   36) = (  -0.5000000  -0.2500000   0.2500000), wk =   0.0625000

     Dense  grid:    69617 G-vectors     FFT dimensions: (  60,  60,  60)

     Smooth grid:    17573 G-vectors     FFT dimensions: (  40,  40,  40)

     Largest allocated arrays     est. size (Mb)     dimensions
        Kohn-Sham Wavefunctions         0.79 Mb     (   1119,   46)
        Atomic wavefunctions            1.06 Mb     (   1119,   62)
        NL pseudopotentials             2.05 Mb     (   1119,  120)
        Each V/rho on FFT grid          1.65 Mb     ( 108000)
        Each G-vector array             0.27 Mb     (  34808)
        G-vector shells                 0.04 Mb     (   4682)
     Largest temporary arrays     est. size (Mb)     dimensions
        Auxiliary wavefunctions         3.14 Mb     (   1119,  184)
        Each subspace H/S matrix        0.52 Mb     ( 184, 184)
        Each <psi_i|beta_j> matrix      0.08 Mb     (    120,   46)
        Arrays for rho mixing          13.18 Mb     ( 108000,   8)

     Check: negative/imaginary core charge=   -0.000028    0.000000

     The initial density is read from file :
     /home/mcurnan/dft-course/Project1/example_LaCoO3/0/O/alpha/CoLaO_U0.save/charge-density.dat

 --- in v_hubbard ---
Hubbard energy    0.0000
 -------
     Number of +U iterations with fixed ns =  0
     Starting occupations:
 --- enter write_ns ---
 LDA+U parameters:
U( 1)     =  0.00000000
alpha( 1) =  0.00000000
U( 2)     =  0.00000000
alpha( 2) =  0.00000000
U( 3)     =  0.00000000
alpha( 3) =  0.00000000
U( 4)     =  0.00000000
alpha( 4) =  0.00000000
atom    1   Tr[ns(na)] =   8.02205
    eigenvalues: 
  0.596  0.596  0.938  0.941  0.941
    eigenvectors:
  0.000  0.000  1.000  0.000  0.000
  0.057  0.598  0.000  0.178  0.167
  0.598  0.057  0.000  0.167  0.178
  0.210  0.135  0.000  0.095  0.560
  0.135  0.210  0.000  0.560  0.095
    occupations:
  0.938  0.000  0.000  0.000  0.000
  0.000  0.715  0.000 -0.060  0.152
  0.000  0.000  0.715  0.152  0.060
  0.000 -0.060  0.152  0.822  0.000
  0.000  0.152  0.060  0.000  0.822
atom    2   Tr[ns(na)] =   8.02142
    eigenvalues: 
  0.595  0.595  0.938  0.941  0.941
    eigenvectors:
  0.000  0.000  1.000  0.000  0.000
  0.332  0.323  0.000  0.023  0.322
  0.323  0.332  0.000  0.322  0.023
  0.288  0.057  0.000  0.647  0.008
  0.057  0.288  0.000  0.008  0.647
    occupations:
  0.938  0.000  0.000  0.000  0.000
  0.000  0.715  0.000  0.060  0.153
  0.000  0.000  0.715  0.153 -0.060
  0.000  0.060  0.153  0.822  0.000
  0.000  0.153 -0.060  0.000  0.822
atom    3   Tr[ns(na)] =   3.80282
    eigenvalues: 
  0.355  0.355  0.384  0.403  0.403
    eigenvectors:
  0.000  0.000  1.000  0.000  0.000
  0.065  0.856  0.000  0.058  0.021
  0.856  0.065  0.000  0.021  0.058
  0.073  0.006  0.000  0.250  0.670
  0.006  0.073  0.000  0.670  0.250
    occupations:
  0.384  0.000  0.000  0.000  0.000
  0.000  0.359  0.000  0.000  0.013
  0.000  0.000  0.359  0.013  0.000
  0.000  0.000  0.013  0.399  0.000
  0.000  0.013  0.000  0.000  0.399
atom    4   Tr[ns(na)] =   3.80282
    eigenvalues: 
  0.355  0.355  0.384  0.403  0.403
    eigenvectors:
  0.000  0.000  1.000  0.000  0.000
  0.729  0.192  0.000  0.048  0.032
  0.192  0.729  0.000  0.032  0.048
  0.017  0.062  0.000  0.359  0.562
  0.062  0.017  0.000  0.562  0.359
    occupations:
  0.384  0.000  0.000  0.000  0.000
  0.000  0.359  0.000  0.000  0.013
  0.000  0.000  0.359  0.013  0.000
  0.000  0.000  0.013  0.399  0.000
  0.000  0.013  0.000  0.000  0.399
atom    5   Tr[ns(na)] =   5.43357
    eigenvalues: 
  0.846  0.929  0.941
    eigenvectors:
  0.340  0.000  0.660
  0.496  0.250  0.255
  0.164  0.750  0.086
    occupations:
  0.909 -0.039  0.022
 -0.039  0.891  0.022
  0.022  0.022  0.917
atom    6   Tr[ns(na)] =   5.43358
    eigenvalues: 
  0.846  0.929  0.941
    eigenvectors:
  0.340  0.000  0.660
  0.494  0.250  0.256
  0.166  0.750  0.085
    occupations:
  0.909  0.039  0.022
  0.039  0.891 -0.022
  0.022 -0.022  0.917
atom    7   Tr[ns(na)] =   5.43358
    eigenvalues: 
  0.846  0.929  0.941
    eigenvectors:
  0.340  0.000  0.660
  0.000  1.000  0.000
  0.660  0.000  0.340
    occupations:
  0.909  0.000 -0.045
  0.000  0.929  0.000
 -0.045  0.000  0.879
atom    8   Tr[ns(na)] =   5.43357
    eigenvalues: 
  0.846  0.929  0.941
    eigenvectors:
  0.340  0.000  0.660
  0.496  0.250  0.255
  0.164  0.750  0.086
    occupations:
  0.909 -0.039  0.022
 -0.039  0.891  0.022
  0.022  0.022  0.917
atom    9   Tr[ns(na)] =   5.43358
    eigenvalues: 
  0.846  0.929  0.941
    eigenvectors:
  0.340  0.000  0.660
  0.494  0.250  0.256
  0.166  0.750  0.085
    occupations:
  0.909  0.039  0.022
  0.039  0.891 -0.022
  0.022 -0.022  0.917
atom   10   Tr[ns(na)] =   5.43358
    eigenvalues: 
  0.846  0.929  0.941
    eigenvectors:
  0.340  0.000  0.660
  0.000  1.000  0.000
  0.660  0.000  0.340
    occupations:
  0.909  0.000 -0.045
  0.000  0.929  0.000
 -0.045  0.000  0.879
N of occupied +U levels =  56.2505796
 --- exit write_ns ---
 LDA+U Projector read from file 
     Starting wfc from file

     total cpu time spent up to now is        7.4 secs

     per-process dynamical memory:    62.8 Mb

     Self-consistent Calculation

     iteration #  1     ecut=    30.00 Ry     beta=0.20
     Davidson diagonalization with overlap
     ethr =  1.00E-10,  avg # of iterations =  9.4
 --- enter write_ns ---
 LDA+U parameters:
U( 1)     =  0.00000000
alpha( 1) =  0.00000000
U( 2)     =  0.00000000
alpha( 2) =  0.00000000
U( 3)     =  0.00000000
alpha( 3) =  0.00000000
U( 4)     =  0.00000000
alpha( 4) =  0.00000000
atom    1   Tr[ns(na)] =   8.02215
    eigenvalues: 
  0.596  0.596  0.938  0.941  0.941
    eigenvectors:
  0.000  0.000  1.000  0.000  0.000
  0.071  0.584  0.000  0.134  0.211
  0.584  0.071  0.000  0.211  0.134
  0.198  0.147  0.000  0.163  0.492
  0.147  0.198  0.000  0.492  0.163
    occupations:
  0.938  0.000  0.000  0.000  0.000
  0.000  0.715  0.000 -0.060  0.152
  0.000  0.000  0.715  0.152  0.060
  0.000 -0.060  0.152  0.822  0.000
  0.000  0.152  0.060  0.000  0.822
atom    2   Tr[ns(na)] =   8.02184
    eigenvalues: 
  0.595  0.595  0.938  0.941  0.941
    eigenvectors:
  0.000  0.000  1.000  0.000  0.000
  0.357  0.297  0.000  0.003  0.342
  0.297  0.357  0.000  0.342  0.003
  0.278  0.068  0.000  0.606  0.049
  0.068  0.278  0.000  0.049  0.606
    occupations:
  0.938  0.000  0.000  0.000  0.000
  0.000  0.715  0.000  0.060  0.153
  0.000  0.000  0.715  0.153 -0.060
  0.000  0.060  0.153  0.822  0.000
  0.000  0.153 -0.060  0.000  0.822
atom    3   Tr[ns(na)] =   3.80294
    eigenvalues: 
  0.355  0.355  0.384  0.403  0.403
    eigenvectors:
  0.000  0.000  1.000  0.000  0.000
  0.037  0.884  0.000  0.046  0.033
  0.884  0.037  0.000  0.033  0.046
  0.076  0.003  0.000  0.396  0.525
  0.003  0.076  0.000  0.525  0.396
    occupations:
  0.384  0.000  0.000  0.000  0.000
  0.000  0.359  0.000  0.000  0.013
  0.000  0.000  0.359  0.013  0.000
  0.000  0.000  0.013  0.399  0.000
  0.000  0.013  0.000  0.000  0.399
atom    4   Tr[ns(na)] =   3.80294
    eigenvalues: 
  0.355  0.355  0.384  0.403  0.403
    eigenvectors:
  0.000  0.000  1.000  0.000  0.000
  0.710  0.210  0.000  0.028  0.051
  0.210  0.710  0.000  0.051  0.028
  0.019  0.061  0.000  0.583  0.337
  0.061  0.019  0.000  0.337  0.583
    occupations:
  0.384  0.000  0.000  0.000  0.000
  0.000  0.359  0.000  0.000  0.013
  0.000  0.000  0.359  0.013  0.000
  0.000  0.000  0.013  0.399  0.000
  0.000  0.013  0.000  0.000  0.399
atom    5   Tr[ns(na)] =   5.43346
    eigenvalues: 
  0.846  0.929  0.941
    eigenvectors:
  0.340  0.000  0.660
  0.496  0.250  0.255
  0.164  0.750  0.086
    occupations:
  0.909 -0.039  0.022
 -0.039  0.891  0.022
  0.022  0.022  0.917
atom    6   Tr[ns(na)] =   5.43347
    eigenvalues: 
  0.846  0.929  0.941
    eigenvectors:
  0.340  0.000  0.660
  0.494  0.250  0.256
  0.166  0.750  0.085
    occupations:
  0.909  0.039  0.022
  0.039  0.891 -0.022
  0.022 -0.022  0.917
atom    7   Tr[ns(na)] =   5.43348
    eigenvalues: 
  0.846  0.929  0.941
    eigenvectors:
  0.340  0.000  0.660
  0.000  1.000  0.000
  0.660  0.000  0.340
    occupations:
  0.909  0.000 -0.045
  0.000  0.929  0.000
 -0.045  0.000  0.879
atom    8   Tr[ns(na)] =   5.43347
    eigenvalues: 
  0.846  0.929  0.941
    eigenvectors:
  0.340  0.000  0.660
  0.496  0.250  0.255
  0.164  0.750  0.086
    occupations:
  0.909 -0.039  0.022
 -0.039  0.891  0.022
  0.022  0.022  0.917
atom    9   Tr[ns(na)] =   5.43347
    eigenvalues: 
  0.846  0.929  0.941
    eigenvectors:
  0.340  0.000  0.660
  0.494  0.250  0.256
  0.166  0.750  0.085
    occupations:
  0.909  0.039  0.022
  0.039  0.891 -0.022
  0.022 -0.022  0.917
atom   10   Tr[ns(na)] =   5.43347
    eigenvalues: 
  0.846  0.929  0.941
    eigenvectors:
  0.340  0.000  0.660
  0.000  1.000  0.000
  0.660  0.000  0.340
    occupations:
  0.909  0.000 -0.045
  0.000  0.929  0.000
 -0.045  0.000  0.879
N of occupied +U levels =  56.2506795
 --- exit write_ns ---
 --- in v_hubbard ---
Hubbard energy    0.0000
 -------

     total cpu time spent up to now is       62.0 secs

     total energy              =    -538.33305962 Ry
     Harris-Foulkes estimate   =    -538.33305968 Ry
     estimated scf accuracy    <       0.00000019 Ry

     iteration #  2     ecut=    30.00 Ry     beta=0.20
     Davidson diagonalization with overlap
     ethr =  2.56E-10,  avg # of iterations =  2.0
 --- enter write_ns ---
 LDA+U parameters:
U( 1)     =  0.00000000
alpha( 1) =  0.00000000
U( 2)     =  0.00000000
alpha( 2) =  0.00000000
U( 3)     =  0.00000000
alpha( 3) =  0.00000000
U( 4)     =  0.00000000
alpha( 4) =  0.00000000
atom    1   Tr[ns(na)] =   8.02284
    eigenvalues: 
  0.596  0.596  0.938  0.941  0.941
    eigenvectors:
  0.000  0.000  1.000  0.000  0.000
  0.065  0.590  0.000  0.175  0.170
  0.590  0.065  0.000  0.170  0.175
  0.203  0.142  0.000  0.100  0.555
  0.142  0.203  0.000  0.555  0.100
    occupations:
  0.938  0.000  0.000  0.000  0.000
  0.000  0.715  0.000 -0.060  0.152
  0.000  0.000  0.715  0.152  0.060
  0.000 -0.060  0.152  0.822  0.000
  0.000  0.152  0.060  0.000  0.822
atom    2   Tr[ns(na)] =   8.02051
    eigenvalues: 
  0.595  0.595  0.938  0.941  0.941
    eigenvectors:
  0.000  0.000  1.000  0.000  0.000
  0.347  0.308  0.000  0.013  0.332
  0.308  0.347  0.000  0.332  0.013
  0.282  0.063  0.000  0.635  0.020
  0.063  0.282  0.000  0.020  0.635
    occupations:
  0.938  0.000  0.000  0.000  0.000
  0.000  0.714  0.000  0.060  0.153
  0.000  0.000  0.714  0.153 -0.060
  0.000  0.060  0.153  0.822  0.000
  0.000  0.153 -0.060  0.000  0.822
atom    3   Tr[ns(na)] =   3.80289
    eigenvalues: 
  0.355  0.355  0.384  0.403  0.403
    eigenvectors:
  0.000  0.000  1.000  0.000  0.000
  0.048  0.873  0.000  0.053  0.026
  0.873  0.048  0.000  0.026  0.053
  0.075  0.004  0.000  0.310  0.611
  0.004  0.075  0.000  0.611  0.310
    occupations:
  0.384  0.000  0.000  0.000  0.000
  0.000  0.359  0.000  0.000  0.013
  0.000  0.000  0.359  0.013  0.000
  0.000  0.000  0.013  0.399  0.000
  0.000  0.013  0.000  0.000  0.399
atom    4   Tr[ns(na)] =   3.80289
    eigenvalues: 
  0.355  0.355  0.384  0.403  0.403
    eigenvectors:
  0.000  0.000  1.000  0.000  0.000
  0.718  0.203  0.000  0.058  0.021
  0.203  0.718  0.000  0.021  0.058
  0.018  0.061  0.000  0.242  0.679
  0.061  0.018  0.000  0.679  0.242
    occupations:
  0.384  0.000  0.000  0.000  0.000
  0.000  0.359  0.000  0.000  0.013
  0.000  0.000  0.359  0.013  0.000
  0.000  0.000  0.013  0.399  0.000
  0.000  0.013  0.000  0.000  0.399
atom    5   Tr[ns(na)] =   5.43357
    eigenvalues: 
  0.846  0.929  0.941
    eigenvectors:
  0.340  0.000  0.660
  0.496  0.250  0.255
  0.164  0.750  0.085
    occupations:
  0.909 -0.039  0.022
 -0.039  0.891  0.022
  0.022  0.022  0.917
atom    6   Tr[ns(na)] =   5.43358
    eigenvalues: 
  0.846  0.929  0.941
    eigenvectors:
  0.340  0.000  0.660
  0.494  0.250  0.256
  0.166  0.750  0.085
    occupations:
  0.909  0.039  0.022
  0.039  0.891 -0.022
  0.022 -0.022  0.917
atom    7   Tr[ns(na)] =   5.43358
    eigenvalues: 
  0.846  0.929  0.941
    eigenvectors:
  0.340  0.000  0.660
  0.000  1.000  0.000
  0.660  0.000  0.340
    occupations:
  0.909  0.000 -0.045
  0.000  0.929  0.000
 -0.045  0.000  0.879
atom    8   Tr[ns(na)] =   5.43357
    eigenvalues: 
  0.846  0.929  0.941
    eigenvectors:
  0.340  0.000  0.660
  0.496  0.250  0.255
  0.164  0.750  0.085
    occupations:
  0.909 -0.039  0.022
 -0.039  0.891  0.022
  0.022  0.022  0.917
atom    9   Tr[ns(na)] =   5.43358
    eigenvalues: 
  0.846  0.929  0.941
    eigenvectors:
  0.340  0.000  0.660
  0.494  0.250  0.256
  0.166  0.750  0.085
    occupations:
  0.909  0.039  0.022
  0.039  0.891 -0.022
  0.022 -0.022  0.917
atom   10   Tr[ns(na)] =   5.43358
    eigenvalues: 
  0.846  0.929  0.941
    eigenvectors:
  0.340  0.000  0.660
  0.000  1.000  0.000
  0.660  0.000  0.340
    occupations:
  0.909  0.000 -0.045
  0.000  0.929  0.000
 -0.045  0.000  0.879
N of occupied +U levels =  56.2505961
 --- exit write_ns ---
 --- in v_hubbard ---
Hubbard energy    0.0000
 -------

     total cpu time spent up to now is       91.1 secs

     total energy              =    -538.33305958 Ry
     Harris-Foulkes estimate   =    -538.33305971 Ry
     estimated scf accuracy    <       0.00000151 Ry

     iteration #  3     ecut=    30.00 Ry     beta=0.20
     Davidson diagonalization with overlap
     ethr =  2.56E-10,  avg # of iterations =  1.2
 --- enter write_ns ---
 LDA+U parameters:
U( 1)     =  0.00000000
alpha( 1) =  0.00000000
U( 2)     =  0.00000000
alpha( 2) =  0.00000000
U( 3)     =  0.00000000
alpha( 3) =  0.00000000
U( 4)     =  0.00000000
alpha( 4) =  0.00000000
atom    1   Tr[ns(na)] =   8.02166
    eigenvalues: 
  0.596  0.596  0.938  0.941  0.941
    eigenvectors:
  0.000  0.000  1.000  0.000  0.000
  0.064  0.590  0.000  0.176  0.169
  0.590  0.064  0.000  0.169  0.176
  0.203  0.142  0.000  0.099  0.556
  0.142  0.203  0.000  0.556  0.099
    occupations:
  0.938  0.000  0.000  0.000  0.000
  0.000  0.715  0.000 -0.060  0.152
  0.000  0.000  0.715  0.152  0.060
  0.000 -0.060  0.152  0.822  0.000
  0.000  0.152  0.060  0.000  0.822
atom    2   Tr[ns(na)] =   8.02175
    eigenvalues: 
  0.595  0.595  0.938  0.941  0.941
    eigenvectors:
  0.000  0.000  1.000  0.000  0.000
  0.347  0.308  0.000  0.013  0.332
  0.308  0.347  0.000  0.332  0.013
  0.282  0.063  0.000  0.635  0.020
  0.063  0.282  0.000  0.020  0.635
    occupations:
  0.938  0.000  0.000  0.000  0.000
  0.000  0.715  0.000  0.060  0.153
  0.000  0.000  0.715  0.153 -0.060
  0.000  0.060  0.153  0.822  0.000
  0.000  0.153 -0.060  0.000  0.822
atom    3   Tr[ns(na)] =   3.80289
    eigenvalues: 
  0.355  0.355  0.384  0.403  0.403
    eigenvectors:
  0.000  0.000  1.000  0.000  0.000
  0.050  0.870  0.000  0.054  0.025
  0.870  0.050  0.000  0.025  0.054
  0.075  0.005  0.000  0.302  0.619
  0.005  0.075  0.000  0.619  0.302
    occupations:
  0.384  0.000  0.000  0.000  0.000
  0.000  0.359  0.000  0.000  0.013
  0.000  0.000  0.359  0.013  0.000
  0.000  0.000  0.013  0.399  0.000
  0.000  0.013  0.000  0.000  0.399
atom    4   Tr[ns(na)] =   3.80288
    eigenvalues: 
  0.355  0.355  0.384  0.403  0.403
    eigenvectors:
  0.000  0.000  1.000  0.000  0.000
  0.721  0.199  0.000  0.055  0.025
  0.199  0.721  0.000  0.025  0.055
  0.018  0.062  0.000  0.281  0.640
  0.062  0.018  0.000  0.640  0.281
    occupations:
  0.384  0.000  0.000  0.000  0.000
  0.000  0.359  0.000  0.000  0.013
  0.000  0.000  0.359  0.013  0.000
  0.000  0.000  0.013  0.399  0.000
  0.000  0.013  0.000  0.000  0.399
atom    5   Tr[ns(na)] =   5.43356
    eigenvalues: 
  0.846  0.929  0.941
    eigenvectors:
  0.340  0.000  0.660
  0.496  0.250  0.255
  0.164  0.750  0.086
    occupations:
  0.909 -0.039  0.022
 -0.039  0.891  0.022
  0.022  0.022  0.917
atom    6   Tr[ns(na)] =   5.43357
    eigenvalues: 
  0.846  0.929  0.941
    eigenvectors:
  0.340  0.000  0.660
  0.494  0.250  0.256
  0.166  0.750  0.085
    occupations:
  0.909  0.039  0.022
  0.039  0.891 -0.022
  0.022 -0.022  0.917
atom    7   Tr[ns(na)] =   5.43357
    eigenvalues: 
  0.846  0.929  0.941
    eigenvectors:
  0.340  0.000  0.660
  0.000  1.000  0.000
  0.660  0.000  0.340
    occupations:
  0.909  0.000 -0.045
  0.000  0.929  0.000
 -0.045  0.000  0.879
atom    8   Tr[ns(na)] =   5.43356
    eigenvalues: 
  0.846  0.929  0.941
    eigenvectors:
  0.340  0.000  0.660
  0.496  0.250  0.255
  0.164  0.750  0.086
    occupations:
  0.909 -0.039  0.022
 -0.039  0.891  0.022
  0.022  0.022  0.917
atom    9   Tr[ns(na)] =   5.43357
    eigenvalues: 
  0.846  0.929  0.941
    eigenvectors:
  0.340  0.000  0.660
  0.494  0.250  0.256
  0.166  0.750  0.085
    occupations:
  0.909  0.039  0.022
  0.039  0.891 -0.022
  0.022 -0.022  0.917
atom   10   Tr[ns(na)] =   5.43357
    eigenvalues: 
  0.846  0.929  0.941
    eigenvectors:
  0.340  0.000  0.660
  0.000  1.000  0.000
  0.660  0.000  0.340
    occupations:
  0.909  0.000 -0.045
  0.000  0.929  0.000
 -0.045  0.000  0.879
N of occupied +U levels =  56.2505999
 --- exit write_ns ---
 --- in v_hubbard ---
Hubbard energy    0.0000
 -------

     total cpu time spent up to now is      118.5 secs

     total energy              =    -538.33305965 Ry
     Harris-Foulkes estimate   =    -538.33305967 Ry
     estimated scf accuracy    <       0.00000026 Ry

     iteration #  4     ecut=    30.00 Ry     beta=0.20
     Davidson diagonalization with overlap
     ethr =  2.56E-10,  avg # of iterations =  1.0
 --- enter write_ns ---
 LDA+U parameters:
U( 1)     =  0.00000000
alpha( 1) =  0.00000000
U( 2)     =  0.00000000
alpha( 2) =  0.00000000
U( 3)     =  0.00000000
alpha( 3) =  0.00000000
U( 4)     =  0.00000000
alpha( 4) =  0.00000000
atom    1   Tr[ns(na)] =   8.02208
    eigenvalues: 
  0.596  0.596  0.938  0.941  0.941
    eigenvectors:
  0.000  0.000  1.000  0.000  0.000
  0.063  0.592  0.000  0.177  0.168
  0.592  0.063  0.000  0.168  0.177
  0.204  0.141  0.000  0.097  0.558
  0.141  0.204  0.000  0.558  0.097
    occupations:
  0.938  0.000  0.000  0.000  0.000
  0.000  0.715  0.000 -0.060  0.152
  0.000  0.000  0.715  0.152  0.060
  0.000 -0.060  0.152  0.822  0.000
  0.000  0.152  0.060  0.000  0.822
atom    2   Tr[ns(na)] =   8.02146
    eigenvalues: 
  0.595  0.595  0.938  0.941  0.941
    eigenvectors:
  0.000  0.000  1.000  0.000  0.000
  0.345  0.310  0.000  0.014  0.331
  0.310  0.345  0.000  0.331  0.014
  0.283  0.062  0.000  0.636  0.019
  0.062  0.283  0.000  0.019  0.636
    occupations:
  0.938  0.000  0.000  0.000  0.000
  0.000  0.715  0.000  0.060  0.153
  0.000  0.000  0.715  0.153 -0.060
  0.000  0.060  0.153  0.822  0.000
  0.000  0.153 -0.060  0.000  0.822
atom    3   Tr[ns(na)] =   3.80287
    eigenvalues: 
  0.355  0.355  0.384  0.403  0.403
    eigenvectors:
  0.000  0.000  1.000  0.000  0.000
  0.051  0.869  0.000  0.055  0.024
  0.869  0.051  0.000  0.024  0.055
  0.075  0.005  0.000  0.288  0.633
  0.005  0.075  0.000  0.633  0.288
    occupations:
  0.384  0.000  0.000  0.000  0.000
  0.000  0.359  0.000  0.000  0.013
  0.000  0.000  0.359  0.013  0.000
  0.000  0.000  0.013  0.399  0.000
  0.000  0.013  0.000  0.000  0.399
atom    4   Tr[ns(na)] =   3.80287
    eigenvalues: 
  0.355  0.355  0.384  0.403  0.403
    eigenvectors:
  0.000  0.000  1.000  0.000  0.000
  0.722  0.198  0.000  0.054  0.026
  0.198  0.722  0.000  0.026  0.054
  0.018  0.062  0.000  0.290  0.630
  0.062  0.018  0.000  0.630  0.290
    occupations:
  0.384  0.000  0.000  0.000  0.000
  0.000  0.359  0.000  0.000  0.013
  0.000  0.000  0.359  0.013  0.000
  0.000  0.000  0.013  0.399  0.000
  0.000  0.013  0.000  0.000  0.399
atom    5   Tr[ns(na)] =   5.43354
    eigenvalues: 
  0.846  0.929  0.941
    eigenvectors:
  0.340  0.000  0.660
  0.496  0.250  0.255
  0.164  0.750  0.086
    occupations:
  0.909 -0.039  0.022
 -0.039  0.891  0.022
  0.022  0.022  0.917
atom    6   Tr[ns(na)] =   5.43356
    eigenvalues: 
  0.846  0.929  0.941
    eigenvectors:
  0.340  0.000  0.660
  0.494  0.250  0.256
  0.166  0.750  0.085
    occupations:
  0.909  0.039  0.022
  0.039  0.891 -0.022
  0.022 -0.022  0.917
atom    7   Tr[ns(na)] =   5.43356
    eigenvalues: 
  0.846  0.929  0.941
    eigenvectors:
  0.340  0.000  0.660
  0.000  1.000  0.000
  0.660  0.000  0.340
    occupations:
  0.909  0.000 -0.045
  0.000  0.929  0.000
 -0.045  0.000  0.879
atom    8   Tr[ns(na)] =   5.43355
    eigenvalues: 
  0.846  0.929  0.941
    eigenvectors:
  0.340  0.000  0.660
  0.496  0.250  0.255
  0.164  0.750  0.086
    occupations:
  0.909 -0.039  0.022
 -0.039  0.891  0.022
  0.022  0.022  0.917
atom    9   Tr[ns(na)] =   5.43355
    eigenvalues: 
  0.846  0.929  0.941
    eigenvectors:
  0.340  0.000  0.660
  0.494  0.250  0.256
  0.166  0.750  0.085
    occupations:
  0.909  0.039  0.022
  0.039  0.891 -0.022
  0.022 -0.022  0.917
atom   10   Tr[ns(na)] =   5.43355
    eigenvalues: 
  0.846  0.929  0.941
    eigenvectors:
  0.340  0.000  0.660
  0.000  1.000  0.000
  0.660  0.000  0.340
    occupations:
  0.909  0.000 -0.045
  0.000  0.929  0.000
 -0.045  0.000  0.879
N of occupied +U levels =  56.2506049
 --- exit write_ns ---
 --- in v_hubbard ---
Hubbard energy    0.0000
 -------

     total cpu time spent up to now is      143.5 secs

     End of self-consistent calculation

          k = 0.0000 0.0000 0.0000 (  2175 PWs)   bands (ev):

   -19.7926 -19.6193  -6.5302  -5.8068  -5.8066  -5.7929  -5.7927  -5.4637
    -3.7455  -3.2568  -3.1817  -3.1816  -3.0171  -3.0171   5.2010   6.9447
     6.9447   7.5324   7.5324   7.7261   7.8352   7.8352   7.8950   9.3108
     9.6306   9.6306   9.8840   9.9352   9.9352  10.4811  10.4811  10.6723
    10.6723  10.6926  10.8205  11.5180  11.5180  12.1893  12.3070  12.3070
    14.7821  14.7821  15.4333  15.4333  16.1989  16.7905

     occupation numbers 
     0.0313   0.0313   0.0313   0.0313   0.0313   0.0313   0.0313   0.0313
     0.0313   0.0313   0.0313   0.0313   0.0313   0.0313   0.0313   0.0313
     0.0313   0.0313   0.0313   0.0313   0.0313   0.0313   0.0313   0.0313
     0.0313   0.0313   0.0312   0.0312   0.0312   0.0312   0.0312   0.0312
     0.0312   0.0312   0.0312   0.0309   0.0309   0.0150   0.0101   0.0101
     0.0000   0.0000   0.0000   0.0000   0.0000   0.0000

          k =-0.2471-0.1427 0.1027 (  2181 PWs)   bands (ev):

   -19.7647 -19.6423  -6.7103  -6.2693  -5.9104  -5.8218  -5.5864  -5.4525
    -3.5645  -3.3741  -2.9144  -2.8915  -2.8289  -2.7474   5.5661   6.8943
     7.0456   7.0523   7.3541   7.5251   7.5877   7.8349   7.8778   8.6297
     8.7269   9.3592   9.6779   9.8147   9.8647  10.0447  10.3911  10.4025
    11.0453  11.0766  11.1593  11.8905  11.9423  12.0039  12.3651  12.4240
    14.3257  14.3337  15.8210  16.0763  16.9760  17.2716

     occupation numbers 
     0.0625   0.0625   0.0625   0.0625   0.0625   0.0625   0.0625   0.0625
     0.0625   0.0625   0.0625   0.0625   0.0625   0.0625   0.0625   0.0625
     0.0625   0.0625   0.0625   0.0625   0.0625   0.0625   0.0625   0.0625
     0.0625   0.0625   0.0625   0.0625   0.0625   0.0625   0.0625   0.0625
     0.0625   0.0625   0.0625   0.0523   0.0493   0.0451   0.0158   0.0121
     0.0000   0.0000   0.0000   0.0000   0.0000   0.0000

          k = 0.4942 0.2853-0.2053 (  2202 PWs)   bands (ev):

   -19.7010 -19.7010  -6.7109  -6.6983  -5.9333  -5.9309  -5.4955  -5.4921
    -3.3639  -3.3610  -2.7730  -2.7713  -2.4979  -2.4960   6.1044   6.1071
     7.2369   7.2513   7.3007   7.3198   7.6672   7.6923   7.9950   8.0185
     8.2069   8.2348   9.5523   9.5545   9.8890   9.8961  10.2958  10.3054
    11.4841  11.4844  11.5632  11.5653  11.7277  11.7319  13.3049  13.3336
    13.3925  13.4214  16.8399  16.8448  17.1376  17.1413

     occupation numbers 
     0.0313   0.0313   0.0313   0.0313   0.0313   0.0313   0.0313   0.0313
     0.0313   0.0313   0.0313   0.0313   0.0313   0.0313   0.0313   0.0313
     0.0313   0.0313   0.0313   0.0313   0.0313   0.0313   0.0313   0.0313
     0.0313   0.0313   0.0313   0.0313   0.0312   0.0312   0.0312   0.0312
     0.0310   0.0310   0.0307   0.0307   0.0293   0.0293   0.0000   0.0000
     0.0000   0.0000   0.0000   0.0000   0.0000   0.0000

          k =-0.2471 0.1427 0.2053 (  2195 PWs)   bands (ev):

   -19.7600 -19.6448  -6.8345  -6.2084  -6.0437  -5.8054  -5.6329  -5.4247
    -3.3908  -3.2501  -3.0834  -2.8731  -2.7960  -2.5487   5.5980   6.8618
     6.9425   7.1314   7.2583   7.4912   7.5025   7.8840   7.8868   8.6983
     8.9214   8.9266   9.3098   9.8100  10.0032  10.1125  10.2155  10.3126
    10.6954  11.4026  11.4283  11.5187  11.9410  12.0077  12.1816  12.7459
    13.6473  14.7969  15.9970  16.1989  17.0404  17.5405

     occupation numbers 
     0.0625   0.0625   0.0625   0.0625   0.0625   0.0625   0.0625   0.0625
     0.0625   0.0625   0.0625   0.0625   0.0625   0.0625   0.0625   0.0625
     0.0625   0.0625   0.0625   0.0625   0.0625   0.0625   0.0625   0.0625
     0.0625   0.0625   0.0625   0.0625   0.0625   0.0625   0.0625   0.0625
     0.0625   0.0623   0.0622   0.0618   0.0494   0.0448   0.0306   0.0015
     0.0000   0.0000   0.0000   0.0000   0.0000   0.0000

          k = 0.4942 0.5706-0.1027 (  2198 PWs)   bands (ev):

   -19.7199 -19.6795  -6.9363  -6.6281  -6.1094  -5.8712  -5.4838  -5.3487
    -3.2866  -3.2395  -2.8631  -2.6940  -2.5144  -2.3722   5.9304   6.2944
     6.9010   7.0483   7.2441   7.3608   7.5769   7.8229   7.9632   8.0961
     8.3796   8.9265   9.1830   9.3695   9.6809   9.8338   9.9872  10.3780
    11.1113  11.5517  11.6399  11.7121  11.8430  11.8657  12.3465  12.7506
    13.4360  14.3730  16.9101  17.1207  17.3169  18.0211

     occupation numbers 
     0.0625   0.0625   0.0625   0.0625   0.0625   0.0625   0.0625   0.0625
     0.0625   0.0625   0.0625   0.0625   0.0625   0.0625   0.0625   0.0625
     0.0625   0.0625   0.0625   0.0625   0.0625   0.0625   0.0625   0.0625
     0.0625   0.0625   0.0625   0.0625   0.0625   0.0625   0.0625   0.0625
     0.0625   0.0615   0.0605   0.0591   0.0546   0.0536   0.0172   0.0014
     0.0000   0.0000   0.0000   0.0000   0.0000   0.0000

          k = 0.2471 0.4280 0.0000 (  2203 PWs)   bands (ev):

   -19.7296 -19.6720  -6.8298  -6.6180  -6.0315  -5.9547  -5.4096  -5.3368
    -3.4917  -3.2813  -2.7875  -2.6976  -2.5536  -2.5432   5.9060   6.3416
     7.1014   7.1497   7.2473   7.3357   7.4781   7.7433   7.8404   8.2067
     8.4444   8.9530   9.4378   9.4873   9.7915   9.8102  10.0813  10.3806
    11.4111  11.4211  11.4501  11.6710  11.6817  11.9623  12.2939  13.3333
    13.4050  14.1682  16.4425  16.9982  17.4256  17.9304

     occupation numbers 
     0.0625   0.0625   0.0625   0.0625   0.0625   0.0625   0.0625   0.0625
     0.0625   0.0625   0.0625   0.0625   0.0625   0.0625   0.0625   0.0625
     0.0625   0.0625   0.0625   0.0625   0.0625   0.0625   0.0625   0.0625
     0.0625   0.0625   0.0625   0.0625   0.0625   0.0625   0.0625   0.0625
     0.0622   0.0622   0.0621   0.0600   0.0597   0.0480   0.0212   0.0000
     0.0000   0.0000   0.0000   0.0000   0.0000   0.0000

          k = 0.4942-0.2853-0.4107 (  2202 PWs)   bands (ev):

   -19.7268 -19.6700  -7.1459  -6.4392  -6.2239  -5.9369  -5.5115  -5.2524
    -3.1765  -3.1159  -3.0270  -2.6390  -2.4684  -2.2101   5.8263   6.3366
     6.4709   6.9375   7.1624   7.2702   7.9030   7.9292   8.1701   8.3298
     8.6016   8.6122   8.6502   9.4306   9.6873  10.0495  10.0873  10.4555
    10.6605  11.3059  11.5764  11.7643  11.8705  11.9818  12.0771  12.4662
    13.3353  14.8088  17.0462  17.2706  17.5258  17.6116

     occupation numbers 
     0.0313   0.0313   0.0313   0.0313   0.0313   0.0313   0.0313   0.0313
     0.0313   0.0313   0.0313   0.0313   0.0313   0.0313   0.0313   0.0313
     0.0313   0.0313   0.0313   0.0313   0.0313   0.0313   0.0313   0.0313
     0.0313   0.0313   0.0313   0.0313   0.0313   0.0312   0.0312   0.0312
     0.0312   0.0312   0.0306   0.0288   0.0267   0.0233   0.0197   0.0049
     0.0000   0.0000   0.0000   0.0000   0.0000   0.0000

          k = 0.0000 0.0000 0.3080 (  2187 PWs)   bands (ev):

   -19.7644 -19.6420  -6.5981  -5.9601  -5.8998  -5.8997  -5.8134  -5.8133
    -3.1837  -3.0878  -3.0878  -2.9571  -2.8828  -2.8827   5.6193   7.0412
     7.0412   7.1544   7.4542   7.4542   7.5339   7.8652   7.8652   8.8777
     8.8777   9.4479   9.4551   9.6779   9.6779   9.8912  10.1510  10.1511
    11.1622  11.1622  11.2267  11.9038  11.9038  12.0164  12.3467  12.3467
    14.2870  14.2870  15.9155  15.9155  16.8821  17.4858

     occupation numbers 
     0.0625   0.0625   0.0625   0.0625   0.0625   0.0625   0.0625   0.0625
     0.0625   0.0625   0.0625   0.0625   0.0625   0.0625   0.0625   0.0625
     0.0625   0.0625   0.0625   0.0625   0.0625   0.0625   0.0625   0.0625
     0.0625   0.0625   0.0625   0.0625   0.0625   0.0625   0.0625   0.0625
     0.0625   0.0625   0.0625   0.0516   0.0516   0.0442   0.0172   0.0172
     0.0000   0.0000   0.0000   0.0000   0.0000   0.0000

          k = 0.7412 0.4280 0.0000 (  2204 PWs)   bands (ev):

   -19.7294 -19.6717  -6.7148  -6.5816  -6.1248  -5.8079  -5.6470  -5.5195
    -3.1524  -3.0743  -3.0336  -2.6628  -2.6413  -2.5696   5.9458   6.5242
     7.1132   7.2200   7.2472   7.3574   7.4673   7.6831   8.0233   8.1625
     8.4723   8.8584   9.4869   9.5078   9.6279   9.6987   9.8735  10.2340
    11.4086  11.4224  11.5194  11.7016  11.7283  11.8931  12.3041  13.2578
    13.3205  14.1915  16.6959  16.7276  17.5947  17.8000

     occupation numbers 
     0.0625   0.0625   0.0625   0.0625   0.0625   0.0625   0.0625   0.0625
     0.0625   0.0625   0.0625   0.0625   0.0625   0.0625   0.0625   0.0625
     0.0625   0.0625   0.0625   0.0625   0.0625   0.0625   0.0625   0.0625
     0.0625   0.0625   0.0625   0.0625   0.0625   0.0625   0.0625   0.0625
     0.0622   0.0622   0.0618   0.0593   0.0587   0.0522   0.0204   0.0000
     0.0000   0.0000   0.0000   0.0000   0.0000   0.0000

          k = 0.4942 0.2853 0.1027 (  2211 PWs)   bands (ev):

   -19.7199 -19.6795  -6.9528  -6.5252  -6.3028  -5.6696  -5.6019  -5.3233
    -3.3000  -3.1535  -3.0132  -2.5914  -2.5473  -2.3652   5.9606   6.2633
     6.8568   7.0385   7.2399   7.3034   7.5960   7.8952   7.9984   8.0581
     8.4136   9.0551   9.1809   9.4207   9.5634   9.6911  10.0383  10.4009
    11.1255  11.5871  11.7139  11.7200  11.7799  11.7993  12.2985  12.7680
    13.4814  14.3546  16.8908  16.9395  17.5882  17.9348

     occupation numbers 
     0.0625   0.0625   0.0625   0.0625   0.0625   0.0625   0.0625   0.0625
     0.0625   0.0625   0.0625   0.0625   0.0625   0.0625   0.0625   0.0625
     0.0625   0.0625   0.0625   0.0625   0.0625   0.0625   0.0625   0.0625
     0.0625   0.0625   0.0625   0.0625   0.0625   0.0625   0.0625   0.0625
     0.0625   0.0612   0.0590   0.0589   0.0571   0.0564   0.0208   0.0012
     0.0000   0.0000   0.0000   0.0000   0.0000   0.0000

          k = 0.7412-0.4280-0.3080 (  2210 PWs)   bands (ev):

   -19.7197 -19.6792  -6.8884  -6.4321  -6.2807  -5.7766  -5.7324  -5.4501
    -3.0563  -3.0350  -2.9515  -2.7157  -2.6067  -2.4152   6.0187   6.4063
     6.9482   7.0258   7.2856   7.2883   7.6176   7.9146   8.0456   8.0900
     8.3899   9.0250   9.0393   9.5355   9.5611   9.6024   9.6794  10.2363
    11.1814  11.6082  11.7002  11.7100  11.8234  11.8646  12.2563  12.7157
    13.4294  14.3240  17.0662  17.0727  17.5565  17.9091

     occupation numbers 
     0.0625   0.0625   0.0625   0.0625   0.0625   0.0625   0.0625   0.0625
     0.0625   0.0625   0.0625   0.0625   0.0625   0.0625   0.0625   0.0625
     0.0625   0.0625   0.0625   0.0625   0.0625   0.0625   0.0625   0.0625
     0.0625   0.0625   0.0625   0.0625   0.0625   0.0625   0.0625   0.0625
     0.0625   0.0609   0.0593   0.0591   0.0555   0.0536   0.0242   0.0019
     0.0000   0.0000   0.0000   0.0000   0.0000   0.0000

          k = 0.4942-0.5706-0.2053 (  2206 PWs)   bands (ev):

   -19.6986 -19.6986  -6.8678  -6.8560  -6.0180  -6.0166  -5.3948  -5.3939
    -3.1405  -3.1401  -2.7985  -2.7977  -2.3720  -2.3693   6.1100   6.1208
     7.0304   7.0339   7.1619   7.1685   7.4493   7.4504   8.2175   8.2528
     8.8179   8.8180   9.0909   9.0915   9.5689   9.5723  10.1219  10.1229
    11.3952  11.3957  11.5964  11.5967  11.8664  11.8667  12.3300  12.3320
    14.0147  14.0230  17.4351  17.4356  17.8721  17.8745

     occupation numbers 
     0.0625   0.0625   0.0625   0.0625   0.0625   0.0625   0.0625   0.0625
     0.0625   0.0625   0.0625   0.0625   0.0625   0.0625   0.0625   0.0625
     0.0625   0.0625   0.0625   0.0625   0.0625   0.0625   0.0625   0.0625
     0.0625   0.0625   0.0625   0.0625   0.0625   0.0625   0.0625   0.0625
     0.0623   0.0623   0.0611   0.0611   0.0535   0.0535   0.0184   0.0182
     0.0000   0.0000   0.0000   0.0000   0.0000   0.0000

          k = 0.0000 0.0000-0.6160 (  2186 PWs)   bands (ev):

   -19.7005 -19.7005  -6.4975  -6.4818  -5.9136  -5.9134  -5.9101  -5.9100
    -2.8729  -2.8728  -2.8711  -2.8711  -2.6991  -2.6989   6.3253   6.3297
     7.2443   7.2443   7.2616   7.2617   7.8637   7.8905   8.1173   8.1173
     8.1448   8.1448   9.6644   9.6644   9.6706   9.6706   9.7263   9.7367
    11.6147  11.6165  11.6628  11.6628  11.6661  11.6661  13.2475  13.2475
    13.2754  13.2754  17.1225  17.1225  17.1246  17.1246

     occupation numbers 
     0.0313   0.0313   0.0313   0.0313   0.0313   0.0313   0.0313   0.0313
     0.0313   0.0313   0.0313   0.0313   0.0313   0.0313   0.0313   0.0313
     0.0313   0.0313   0.0313   0.0313   0.0313   0.0313   0.0313   0.0313
     0.0313   0.0313   0.0313   0.0313   0.0313   0.0313   0.0313   0.0313
     0.0304   0.0304   0.0301   0.0301   0.0300   0.0300   0.0000   0.0000
     0.0000   0.0000   0.0000   0.0000   0.0000   0.0000

          k =-0.2471 0.1427-0.1027 (  2181 PWs)   bands (ev):

   -19.7647 -19.6423  -6.7103  -6.2693  -5.9104  -5.8219  -5.5864  -5.4525
    -3.5645  -3.3741  -2.9145  -2.8915  -2.8289  -2.7474   5.5661   6.8943
     7.0456   7.0523   7.3541   7.5251   7.5877   7.8349   7.8778   8.6297
     8.7269   9.3592   9.6779   9.8147   9.8647  10.0447  10.3912  10.4025
    11.0453  11.0766  11.1593  11.8905  11.9423  12.0039  12.3651  12.4240
    14.3257  14.3337  15.8210  16.0763  16.9760  17.2716

     occupation numbers 
     0.0625   0.0625   0.0625   0.0625   0.0625   0.0625   0.0625   0.0625
     0.0625   0.0625   0.0625   0.0625   0.0625   0.0625   0.0625   0.0625
     0.0625   0.0625   0.0625   0.0625   0.0625   0.0625   0.0625   0.0625
     0.0625   0.0625   0.0625   0.0625   0.0625   0.0625   0.0625   0.0625
     0.0625   0.0625   0.0625   0.0523   0.0493   0.0451   0.0158   0.0121
     0.0000   0.0000   0.0000   0.0000   0.0000   0.0000

          k = 0.0000 0.2853 0.1027 (  2181 PWs)   bands (ev):

   -19.7647 -19.6423  -6.7103  -6.2693  -5.9104  -5.8218  -5.5864  -5.4525
    -3.5645  -3.3741  -2.9144  -2.8915  -2.8289  -2.7474   5.5661   6.8943
     7.0456   7.0523   7.3541   7.5251   7.5877   7.8349   7.8778   8.6297
     8.7269   9.3592   9.6779   9.8147   9.8647  10.0447  10.3912  10.4025
    11.0453  11.0766  11.1593  11.8905  11.9423  12.0039  12.3651  12.4240
    14.3257  14.3337  15.8210  16.0763  16.9760  17.2716

     occupation numbers 
     0.0625   0.0625   0.0625   0.0625   0.0625   0.0625   0.0625   0.0625
     0.0625   0.0625   0.0625   0.0625   0.0625   0.0625   0.0625   0.0625
     0.0625   0.0625   0.0625   0.0625   0.0625   0.0625   0.0625   0.0625
     0.0625   0.0625   0.0625   0.0625   0.0625   0.0625   0.0625   0.0625
     0.0625   0.0625   0.0625   0.0523   0.0493   0.0451   0.0158   0.0121
     0.0000   0.0000   0.0000   0.0000   0.0000   0.0000

          k = 0.4942-0.2853 0.2053 (  2202 PWs)   bands (ev):

   -19.7010 -19.7010  -6.7109  -6.6983  -5.9333  -5.9310  -5.4955  -5.4920
    -3.3639  -3.3610  -2.7731  -2.7713  -2.4979  -2.4960   6.1044   6.1071
     7.2369   7.2513   7.3007   7.3198   7.6671   7.6922   7.9950   8.0185
     8.2068   8.2348   9.5523   9.5545   9.8890   9.8961  10.2958  10.3054
    11.4841  11.4844  11.5632  11.5653  11.7277  11.7319  13.3049  13.3336
    13.3925  13.4214  16.8399  16.8448  17.1376  17.1413

     occupation numbers 
     0.0313   0.0313   0.0313   0.0313   0.0313   0.0313   0.0313   0.0313
     0.0313   0.0313   0.0313   0.0313   0.0313   0.0313   0.0313   0.0313
     0.0313   0.0313   0.0313   0.0313   0.0313   0.0313   0.0313   0.0313
     0.0313   0.0313   0.0313   0.0313   0.0312   0.0312   0.0312   0.0312
     0.0310   0.0310   0.0307   0.0307   0.0293   0.0293   0.0000   0.0000
     0.0000   0.0000   0.0000   0.0000   0.0000   0.0000

          k = 0.0000-0.5706-0.2053 (  2202 PWs)   bands (ev):

   -19.7010 -19.7010  -6.7109  -6.6983  -5.9332  -5.9310  -5.4956  -5.4919
    -3.3639  -3.3610  -2.7731  -2.7713  -2.4979  -2.4960   6.1044   6.1071
     7.2370   7.2513   7.3007   7.3198   7.6672   7.6923   7.9951   8.0185
     8.2068   8.2348   9.5523   9.5545   9.8890   9.8961  10.2958  10.3054
    11.4841  11.4844  11.5632  11.5653  11.7277  11.7319  13.3049  13.3336
    13.3924  13.4214  16.8399  16.8448  17.1376  17.1413

     occupation numbers 
     0.0313   0.0313   0.0313   0.0313   0.0313   0.0313   0.0313   0.0313
     0.0313   0.0313   0.0313   0.0313   0.0313   0.0313   0.0313   0.0313
     0.0313   0.0313   0.0313   0.0313   0.0313   0.0313   0.0313   0.0313
     0.0313   0.0313   0.0313   0.0313   0.0312   0.0312   0.0312   0.0312
     0.0310   0.0310   0.0307   0.0307   0.0293   0.0293   0.0000   0.0000
     0.0000   0.0000   0.0000   0.0000   0.0000   0.0000

          k =-0.2471-0.1427-0.2053 (  2195 PWs)   bands (ev):

   -19.7600 -19.6448  -6.8346  -6.2084  -6.0438  -5.8052  -5.6328  -5.4248
    -3.3908  -3.2501  -3.0834  -2.8731  -2.7960  -2.5487   5.5980   6.8618
     6.9426   7.1314   7.2583   7.4912   7.5025   7.8840   7.8868   8.6983
     8.9214   8.9266   9.3098   9.8100  10.0033  10.1124  10.2155  10.3126
    10.6954  11.4026  11.4283  11.5187  11.9410  12.0077  12.1816  12.7459
    13.6473  14.7969  15.9971  16.1989  17.0404  17.5405

     occupation numbers 
     0.0625   0.0625   0.0625   0.0625   0.0625   0.0625   0.0625   0.0625
     0.0625   0.0625   0.0625   0.0625   0.0625   0.0625   0.0625   0.0625
     0.0625   0.0625   0.0625   0.0625   0.0625   0.0625   0.0625   0.0625
     0.0625   0.0625   0.0625   0.0625   0.0625   0.0625   0.0625   0.0625
     0.0625   0.0623   0.0622   0.0618   0.0494   0.0448   0.0306   0.0015
     0.0000   0.0000   0.0000   0.0000   0.0000   0.0000

          k = 0.0000-0.2853 0.2053 (  2195 PWs)   bands (ev):

   -19.7600 -19.6448  -6.8346  -6.2084  -6.0438  -5.8052  -5.6328  -5.4248
    -3.3908  -3.2501  -3.0834  -2.8731  -2.7960  -2.5487   5.5980   6.8618
     6.9426   7.1314   7.2583   7.4912   7.5025   7.8840   7.8868   8.6983
     8.9214   8.9266   9.3098   9.8100  10.0032  10.1124  10.2155  10.3126
    10.6954  11.4026  11.4283  11.5187  11.9410  12.0077  12.1816  12.7459
    13.6473  14.7969  15.9971  16.1989  17.0404  17.5405

     occupation numbers 
     0.0625   0.0625   0.0625   0.0625   0.0625   0.0625   0.0625   0.0625
     0.0625   0.0625   0.0625   0.0625   0.0625   0.0625   0.0625   0.0625
     0.0625   0.0625   0.0625   0.0625   0.0625   0.0625   0.0625   0.0625
     0.0625   0.0625   0.0625   0.0625   0.0625   0.0625   0.0625   0.0625
     0.0625   0.0623   0.0622   0.0618   0.0494   0.0448   0.0306   0.0015
     0.0000   0.0000   0.0000   0.0000   0.0000   0.0000

          k = 0.4942-0.5706 0.1027 (  2198 PWs)   bands (ev):

   -19.7199 -19.6795  -6.9369  -6.6270  -6.1106  -5.8701  -5.4846  -5.3481
    -3.2873  -3.2394  -2.8633  -2.6930  -2.5150  -2.3719   5.9291   6.2963
     6.8977   7.0485   7.2504   7.3574   7.5774   7.8247   7.9429   8.1199
     8.3727   8.9326   9.1782   9.3681   9.6793   9.8351   9.9869  10.3793
    11.1105  11.5529  11.6407  11.7117  11.8435  11.8645  12.3462  12.7503
    13.4359  14.3728  16.9120  17.1179  17.3175  18.0212

     occupation numbers 
     0.0625   0.0625   0.0625   0.0625   0.0625   0.0625   0.0625   0.0625
     0.0625   0.0625   0.0625   0.0625   0.0625   0.0625   0.0625   0.0625
     0.0625   0.0625   0.0625   0.0625   0.0625   0.0625   0.0625   0.0625
     0.0625   0.0625   0.0625   0.0625   0.0625   0.0625   0.0625   0.0625
     0.0625   0.0615   0.0605   0.0591   0.0546   0.0536   0.0172   0.0014
     0.0000   0.0000   0.0000   0.0000   0.0000   0.0000

          k =-0.7412 0.1427-0.1027 (  2198 PWs)   bands (ev):

   -19.7199 -19.6795  -6.9364  -6.6281  -6.1095  -5.8710  -5.4837  -5.3489
    -3.2866  -3.2395  -2.8631  -2.6940  -2.5144  -2.3723   5.9304   6.2944
     6.9010   7.0483   7.2441   7.3608   7.5769   7.8229   7.9632   8.0961
     8.3795   8.9264   9.1830   9.3695   9.6809   9.8338   9.9872  10.3780
    11.1113  11.5517  11.6399  11.7121  11.8430  11.8657  12.3465  12.7506
    13.4360  14.3730  16.9101  17.1207  17.3169  18.0211

     occupation numbers 
     0.0625   0.0625   0.0625   0.0625   0.0625   0.0625   0.0625   0.0625
     0.0625   0.0625   0.0625   0.0625   0.0625   0.0625   0.0625   0.0625
     0.0625   0.0625   0.0625   0.0625   0.0625   0.0625   0.0625   0.0625
     0.0625   0.0625   0.0625   0.0625   0.0625   0.0625   0.0625   0.0625
     0.0625   0.0615   0.0605   0.0591   0.0546   0.0536   0.0172   0.0014
     0.0000   0.0000   0.0000   0.0000   0.0000   0.0000

          k = 0.2471-0.7133-0.1027 (  2198 PWs)   bands (ev):

   -19.7199 -19.6795  -6.9364  -6.6281  -6.1095  -5.8710  -5.4837  -5.3489
    -3.2866  -3.2395  -2.8631  -2.6940  -2.5144  -2.3723   5.9304   6.2944
     6.9010   7.0483   7.2441   7.3608   7.5769   7.8230   7.9632   8.0961
     8.3796   8.9264   9.1830   9.3695   9.6809   9.8338   9.9872  10.3780
    11.1113  11.5517  11.6399  11.7121  11.8430  11.8657  12.3465  12.7506
    13.4360  14.3730  16.9101  17.1207  17.3169  18.0211

     occupation numbers 
     0.0625   0.0625   0.0625   0.0625   0.0625   0.0625   0.0625   0.0625
     0.0625   0.0625   0.0625   0.0625   0.0625   0.0625   0.0625   0.0625
     0.0625   0.0625   0.0625   0.0625   0.0625   0.0625   0.0625   0.0625
     0.0625   0.0625   0.0625   0.0625   0.0625   0.0625   0.0625   0.0625
     0.0625   0.0615   0.0605   0.0591   0.0546   0.0536   0.0172   0.0014
     0.0000   0.0000   0.0000   0.0000   0.0000   0.0000

          k =-0.7412-0.1427 0.1027 (  2198 PWs)   bands (ev):

   -19.7199 -19.6795  -6.9369  -6.6270  -6.1107  -5.8700  -5.4846  -5.3481
    -3.2873  -3.2394  -2.8633  -2.6930  -2.5150  -2.3719   5.9291   6.2963
     6.8977   7.0485   7.2504   7.3574   7.5774   7.8247   7.9429   8.1199
     8.3728   8.9326   9.1782   9.3681   9.6793   9.8350   9.9869  10.3793
    11.1105  11.5529  11.6407  11.7117  11.8435  11.8645  12.3462  12.7503
    13.4359  14.3728  16.9120  17.1179  17.3175  18.0212

     occupation numbers 
     0.0625   0.0625   0.0625   0.0625   0.0625   0.0625   0.0625   0.0625
     0.0625   0.0625   0.0625   0.0625   0.0625   0.0625   0.0625   0.0625
     0.0625   0.0625   0.0625   0.0625   0.0625   0.0625   0.0625   0.0625
     0.0625   0.0625   0.0625   0.0625   0.0625   0.0625   0.0625   0.0625
     0.0625   0.0615   0.0605   0.0591   0.0546   0.0536   0.0172   0.0014
     0.0000   0.0000   0.0000   0.0000   0.0000   0.0000

          k = 0.2471 0.7133 0.1027 (  2198 PWs)   bands (ev):

   -19.7199 -19.6795  -6.9368  -6.6271  -6.1106  -5.8703  -5.4848  -5.3479
    -3.2873  -3.2394  -2.8633  -2.6929  -2.5150  -2.3718   5.9291   6.2963
     6.8977   7.0485   7.2504   7.3574   7.5774   7.8247   7.9429   8.1199
     8.3727   8.9326   9.1782   9.3681   9.6792   9.8351   9.9869  10.3794
    11.1105  11.5529  11.6407  11.7117  11.8435  11.8645  12.3462  12.7503
    13.4359  14.3728  16.9120  17.1179  17.3174  18.0212

     occupation numbers 
     0.0625   0.0625   0.0625   0.0625   0.0625   0.0625   0.0625   0.0625
     0.0625   0.0625   0.0625   0.0625   0.0625   0.0625   0.0625   0.0625
     0.0625   0.0625   0.0625   0.0625   0.0625   0.0625   0.0625   0.0625
     0.0625   0.0625   0.0625   0.0625   0.0625   0.0625   0.0625   0.0625
     0.0625   0.0615   0.0605   0.0591   0.0546   0.0536   0.0172   0.0014
     0.0000   0.0000   0.0000   0.0000   0.0000   0.0000

          k = 0.2471-0.4280 0.0000 (  2203 PWs)   bands (ev):

   -19.7296 -19.6720  -6.8298  -6.6181  -6.0313  -5.9549  -5.4097  -5.3367
    -3.4917  -3.2813  -2.7875  -2.6976  -2.5536  -2.5432   5.9060   6.3416
     7.1014   7.1497   7.2472   7.3357   7.4781   7.7432   7.8404   8.2066
     8.4444   8.9530   9.4377   9.4874   9.7915   9.8102  10.0813  10.3806
    11.4111  11.4211  11.4501  11.6710  11.6817  11.9623  12.2939  13.3333
    13.4050  14.1681  16.4425  16.9982  17.4256  17.9304

     occupation numbers 
     0.0625   0.0625   0.0625   0.0625   0.0625   0.0625   0.0625   0.0625
     0.0625   0.0625   0.0625   0.0625   0.0625   0.0625   0.0625   0.0625
     0.0625   0.0625   0.0625   0.0625   0.0625   0.0625   0.0625   0.0625
     0.0625   0.0625   0.0625   0.0625   0.0625   0.0625   0.0625   0.0625
     0.0622   0.0622   0.0621   0.0600   0.0597   0.0480   0.0212   0.0000
     0.0000   0.0000   0.0000   0.0000   0.0000   0.0000

          k =-0.4942 0.0000 0.0000 (  2203 PWs)   bands (ev):

   -19.7296 -19.6720  -6.8298  -6.6181  -6.0313  -5.9549  -5.4097  -5.3367
    -3.4917  -3.2813  -2.7875  -2.6976  -2.5536  -2.5432   5.9060   6.3416
     7.1014   7.1497   7.2472   7.3357   7.4781   7.7432   7.8404   8.2066
     8.4444   8.9530   9.4378   9.4874   9.7915   9.8102  10.0813  10.3806
    11.4111  11.4211  11.4501  11.6710  11.6817  11.9623  12.2939  13.3333
    13.4050  14.1681  16.4425  16.9982  17.4256  17.9304

     occupation numbers 
     0.0625   0.0625   0.0625   0.0625   0.0625   0.0625   0.0625   0.0625
     0.0625   0.0625   0.0625   0.0625   0.0625   0.0625   0.0625   0.0625
     0.0625   0.0625   0.0625   0.0625   0.0625   0.0625   0.0625   0.0625
     0.0625   0.0625   0.0625   0.0625   0.0625   0.0625   0.0625   0.0625
     0.0622   0.0622   0.0621   0.0600   0.0597   0.0480   0.0212   0.0000
     0.0000   0.0000   0.0000   0.0000   0.0000   0.0000

          k = 0.4942 0.2853 0.4107 (  2202 PWs)   bands (ev):

   -19.7268 -19.6700  -7.1460  -6.4393  -6.2240  -5.9366  -5.5113  -5.2526
    -3.1765  -3.1159  -3.0270  -2.6391  -2.4684  -2.2102   5.8263   6.3366
     6.4708   6.9375   7.1624   7.2702   7.9030   7.9292   8.1701   8.3298
     8.6016   8.6122   8.6502   9.4306   9.6873  10.0495  10.0873  10.4555
    10.6605  11.3059  11.5764  11.7643  11.8705  11.9817  12.0771  12.4662
    13.3353  14.8088  17.0462  17.2706  17.5258  17.6116

     occupation numbers 
     0.0313   0.0313   0.0313   0.0313   0.0313   0.0313   0.0313   0.0313
     0.0313   0.0313   0.0313   0.0313   0.0313   0.0313   0.0313   0.0313
     0.0313   0.0313   0.0313   0.0313   0.0313   0.0313   0.0313   0.0313
     0.0313   0.0313   0.0313   0.0313   0.0313   0.0312   0.0312   0.0312
     0.0312   0.0312   0.0306   0.0288   0.0267   0.0233   0.0197   0.0049
     0.0000   0.0000   0.0000   0.0000   0.0000   0.0000

          k = 0.0000 0.5706-0.4107 (  2202 PWs)   bands (ev):

   -19.7268 -19.6700  -7.1460  -6.4393  -6.2240  -5.9366  -5.5113  -5.2525
    -3.1765  -3.1159  -3.0270  -2.6391  -2.4684  -2.2102   5.8263   6.3366
     6.4708   6.9375   7.1624   7.2702   7.9030   7.9292   8.1701   8.3298
     8.6016   8.6122   8.6502   9.4305   9.6873  10.0495  10.0873  10.4555
    10.6605  11.3059  11.5764  11.7643  11.8705  11.9817  12.0771  12.4662
    13.3353  14.8088  17.0462  17.2707  17.5258  17.6116

     occupation numbers 
     0.0313   0.0313   0.0313   0.0313   0.0313   0.0313   0.0313   0.0313
     0.0313   0.0313   0.0313   0.0313   0.0313   0.0313   0.0313   0.0313
     0.0313   0.0313   0.0313   0.0313   0.0313   0.0313   0.0313   0.0313
     0.0313   0.0313   0.0313   0.0313   0.0313   0.0312   0.0312   0.0312
     0.0312   0.0312   0.0306   0.0288   0.0267   0.0233   0.0197   0.0049
     0.0000   0.0000   0.0000   0.0000   0.0000   0.0000

          k = 0.7412-0.4280 0.0000 (  2204 PWs)   bands (ev):

   -19.7294 -19.6717  -6.7149  -6.5815  -6.1248  -5.8079  -5.6471  -5.5194
    -3.1524  -3.0743  -3.0336  -2.6628  -2.6413  -2.5696   5.9458   6.5242
     7.1132   7.2200   7.2472   7.3574   7.4673   7.6831   8.0233   8.1624
     8.4722   8.8584   9.4869   9.5078   9.6279   9.6987   9.8735  10.2341
    11.4086  11.4224  11.5194  11.7016  11.7283  11.8931  12.3041  13.2578
    13.3205  14.1915  16.6959  16.7276  17.5947  17.8000

     occupation numbers 
     0.0625   0.0625   0.0625   0.0625   0.0625   0.0625   0.0625   0.0625
     0.0625   0.0625   0.0625   0.0625   0.0625   0.0625   0.0625   0.0625
     0.0625   0.0625   0.0625   0.0625   0.0625   0.0625   0.0625   0.0625
     0.0625   0.0625   0.0625   0.0625   0.0625   0.0625   0.0625   0.0625
     0.0622   0.0622   0.0618   0.0593   0.0587   0.0522   0.0204   0.0000
     0.0000   0.0000   0.0000   0.0000   0.0000   0.0000

          k = 0.0000-0.8559 0.0000 (  2204 PWs)   bands (ev):

   -19.7294 -19.6717  -6.7148  -6.5816  -6.1248  -5.8079  -5.6470  -5.5195
    -3.1524  -3.0743  -3.0336  -2.6628  -2.6413  -2.5696   5.9458   6.5242
     7.1132   7.2200   7.2472   7.3574   7.4673   7.6831   8.0233   8.1625
     8.4723   8.8584   9.4869   9.5078   9.6279   9.6987   9.8735  10.2340
    11.4086  11.4224  11.5194  11.7016  11.7283  11.8931  12.3041  13.2578
    13.3205  14.1915  16.6959  16.7276  17.5947  17.8000

     occupation numbers 
     0.0625   0.0625   0.0625   0.0625   0.0625   0.0625   0.0625   0.0625
     0.0625   0.0625   0.0625   0.0625   0.0625   0.0625   0.0625   0.0625
     0.0625   0.0625   0.0625   0.0625   0.0625   0.0625   0.0625   0.0625
     0.0625   0.0625   0.0625   0.0625   0.0625   0.0625   0.0625   0.0625
     0.0622   0.0622   0.0618   0.0593   0.0587   0.0522   0.0204   0.0000
     0.0000   0.0000   0.0000   0.0000   0.0000   0.0000

          k = 0.4942-0.2853-0.1027 (  2211 PWs)   bands (ev):

   -19.7199 -19.6794  -6.9527  -6.5252  -6.3028  -5.6697  -5.6020  -5.3232
    -3.3000  -3.1535  -3.0132  -2.5914  -2.5473  -2.3651   5.9606   6.2633
     6.8568   7.0385   7.2399   7.3034   7.5960   7.8952   7.9984   8.0581
     8.4136   9.0551   9.1809   9.4207   9.5633   9.6911  10.0384  10.4010
    11.1255  11.5871  11.7139  11.7200  11.7799  11.7993  12.2985  12.7679
    13.4814  14.3546  16.8908  16.9394  17.5882  17.9348

     occupation numbers 
     0.0625   0.0625   0.0625   0.0625   0.0625   0.0625   0.0625   0.0625
     0.0625   0.0625   0.0625   0.0625   0.0625   0.0625   0.0625   0.0625
     0.0625   0.0625   0.0625   0.0625   0.0625   0.0625   0.0625   0.0625
     0.0625   0.0625   0.0625   0.0625   0.0625   0.0625   0.0625   0.0625
     0.0625   0.0612   0.0590   0.0589   0.0571   0.0564   0.0208   0.0012
     0.0000   0.0000   0.0000   0.0000   0.0000   0.0000

          k = 0.0000-0.5706 0.1027 (  2211 PWs)   bands (ev):

   -19.7199 -19.6795  -6.9528  -6.5252  -6.3028  -5.6696  -5.6019  -5.3233
    -3.3000  -3.1535  -3.0132  -2.5914  -2.5473  -2.3652   5.9606   6.2633
     6.8568   7.0385   7.2399   7.3034   7.5960   7.8952   7.9984   8.0581
     8.4136   9.0551   9.1809   9.4207   9.5634   9.6911  10.0383  10.4009
    11.1255  11.5871  11.7139  11.7200  11.7799  11.7993  12.2985  12.7680
    13.4814  14.3546  16.8908  16.9395  17.5882  17.9348

     occupation numbers 
     0.0625   0.0625   0.0625   0.0625   0.0625   0.0625   0.0625   0.0625
     0.0625   0.0625   0.0625   0.0625   0.0625   0.0625   0.0625   0.0625
     0.0625   0.0625   0.0625   0.0625   0.0625   0.0625   0.0625   0.0625
     0.0625   0.0625   0.0625   0.0625   0.0625   0.0625   0.0625   0.0625
     0.0625   0.0612   0.0590   0.0589   0.0571   0.0564   0.0208   0.0012
     0.0000   0.0000   0.0000   0.0000   0.0000   0.0000

          k = 0.7412 0.4280 0.3080 (  2210 PWs)   bands (ev):

   -19.7197 -19.6792  -6.8885  -6.4320  -6.2807  -5.7764  -5.7323  -5.4502
    -3.0563  -3.0349  -2.9515  -2.7157  -2.6067  -2.4153   6.0187   6.4063
     6.9482   7.0258   7.2856   7.2884   7.6176   7.9146   8.0457   8.0900
     8.3899   9.0250   9.0393   9.5355   9.5611   9.6025   9.6794  10.2363
    11.1814  11.6082  11.7002  11.7100  11.8234  11.8646  12.2563  12.7157
    13.4294  14.3240  17.0662  17.0727  17.5565  17.9091

     occupation numbers 
     0.0625   0.0625   0.0625   0.0625   0.0625   0.0625   0.0625   0.0625
     0.0625   0.0625   0.0625   0.0625   0.0625   0.0625   0.0625   0.0625
     0.0625   0.0625   0.0625   0.0625   0.0625   0.0625   0.0625   0.0625
     0.0625   0.0625   0.0625   0.0625   0.0625   0.0625   0.0625   0.0625
     0.0625   0.0609   0.0593   0.0591   0.0555   0.0536   0.0242   0.0019
     0.0000   0.0000   0.0000   0.0000   0.0000   0.0000

          k = 0.0000 0.8559-0.3080 (  2210 PWs)   bands (ev):

   -19.7197 -19.6792  -6.8885  -6.4320  -6.2807  -5.7764  -5.7323  -5.4502
    -3.0563  -3.0349  -2.9515  -2.7157  -2.6068  -2.4153   6.0187   6.4063
     6.9482   7.0258   7.2856   7.2884   7.6176   7.9146   8.0456   8.0900
     8.3899   9.0250   9.0393   9.5355   9.5611   9.6025   9.6794  10.2363
    11.1814  11.6082  11.7002  11.7100  11.8234  11.8646  12.2563  12.7157
    13.4294  14.3240  17.0662  17.0727  17.5565  17.9091

     occupation numbers 
     0.0625   0.0625   0.0625   0.0625   0.0625   0.0625   0.0625   0.0625
     0.0625   0.0625   0.0625   0.0625   0.0625   0.0625   0.0625   0.0625
     0.0625   0.0625   0.0625   0.0625   0.0625   0.0625   0.0625   0.0625
     0.0625   0.0625   0.0625   0.0625   0.0625   0.0625   0.0625   0.0625
     0.0625   0.0609   0.0593   0.0591   0.0555   0.0536   0.0242   0.0019
     0.0000   0.0000   0.0000   0.0000   0.0000   0.0000

          k = 0.2471 0.7133-0.2053 (  2206 PWs)   bands (ev):

   -19.6986 -19.6986  -6.8678  -6.8560  -6.0180  -6.0166  -5.3948  -5.3939
    -3.1405  -3.1401  -2.7985  -2.7977  -2.3720  -2.3693   6.1100   6.1208
     7.0304   7.0339   7.1619   7.1685   7.4494   7.4504   8.2174   8.2528
     8.8179   8.8180   9.0909   9.0915   9.5689   9.5723  10.1219  10.1229
    11.3952  11.3957  11.5964  11.5967  11.8664  11.8667  12.3300  12.3320
    14.0147  14.0230  17.4351  17.4356  17.8721  17.8745

     occupation numbers 
     0.0625   0.0625   0.0625   0.0625   0.0625   0.0625   0.0625   0.0625
     0.0625   0.0625   0.0625   0.0625   0.0625   0.0625   0.0625   0.0625
     0.0625   0.0625   0.0625   0.0625   0.0625   0.0625   0.0625   0.0625
     0.0625   0.0625   0.0625   0.0625   0.0625   0.0625   0.0625   0.0625
     0.0623   0.0623   0.0611   0.0611   0.0535   0.0535   0.0184   0.0182
     0.0000   0.0000   0.0000   0.0000   0.0000   0.0000

          k =-0.7412-0.1427-0.2053 (  2206 PWs)   bands (ev):

   -19.6986 -19.6986  -6.8679  -6.8561  -6.0179  -6.0165  -5.3949  -5.3940
    -3.1405  -3.1401  -2.7985  -2.7977  -2.3721  -2.3693   6.1100   6.1208
     7.0304   7.0339   7.1619   7.1685   7.4493   7.4504   8.2175   8.2528
     8.8179   8.8180   9.0909   9.0915   9.5689   9.5723  10.1219  10.1229
    11.3952  11.3957  11.5964  11.5967  11.8664  11.8667  12.3300  12.3320
    14.0147  14.0230  17.4351  17.4356  17.8721  17.8745

     occupation numbers 
     0.0625   0.0625   0.0625   0.0625   0.0625   0.0625   0.0625   0.0625
     0.0625   0.0625   0.0625   0.0625   0.0625   0.0625   0.0625   0.0625
     0.0625   0.0625   0.0625   0.0625   0.0625   0.0625   0.0625   0.0625
     0.0625   0.0625   0.0625   0.0625   0.0625   0.0625   0.0625   0.0625
     0.0623   0.0623   0.0611   0.0611   0.0535   0.0535   0.0184   0.0182
     0.0000   0.0000   0.0000   0.0000   0.0000   0.0000

     the Fermi energy is    12.1737 ev

!    total energy              =    -538.33305966 Ry
     Harris-Foulkes estimate   =    -538.33305966 Ry
     estimated scf accuracy    <          1.1E-09 Ry

     The total energy is the sum of the following terms:

     one-electron contribution =     -32.89210824 Ry
     hartree contribution      =      83.60305432 Ry
     xc contribution           =    -199.55487590 Ry
     ewald contribution        =    -389.44315552 Ry
     Hubbard energy            =       0.00000000 Ry
     smearing contrib. (-TS)   =      -0.04597431 Ry

     convergence has been achieved in   4 iterations

     init_run     :      6.73s CPU      6.91s WALL (       1 calls)
     electrons    :    134.34s CPU    136.11s WALL (       1 calls)

     Called by init_run:
     wfcinit      :      0.00s CPU      0.00s WALL (       1 calls)
     potinit      :      0.27s CPU      0.33s WALL (       1 calls)

     Called by electrons:
     c_bands      :    104.12s CPU    105.49s WALL (       4 calls)
     sum_band     :     22.44s CPU     22.66s WALL (       4 calls)
     v_of_rho     :      1.25s CPU      1.27s WALL (       5 calls)
     v_h          :      0.07s CPU      0.08s WALL (       5 calls)
     v_xc         :      1.18s CPU      1.19s WALL (       5 calls)
     newd         :      7.93s CPU      7.99s WALL (       5 calls)
     mix_rho      :      0.10s CPU      0.10s WALL (       4 calls)

     Called by c_bands:
     init_us_2    :      1.08s CPU      1.10s WALL (     288 calls)
     cegterg      :    101.10s CPU    101.97s WALL (     144 calls)

     Called by sum_band:
     sum_band:bec :      0.09s CPU      0.11s WALL (     144 calls)
     addusdens    :      4.75s CPU      4.75s WALL (       4 calls)

     Called by *egterg:
     h_psi        :     70.76s CPU     71.58s WALL (     633 calls)
     s_psi        :      4.11s CPU      4.13s WALL (     633 calls)
     g_psi        :      0.32s CPU      0.31s WALL (     489 calls)
     cdiaghg      :     11.70s CPU     11.70s WALL (     597 calls)
     cegterg:over :      5.43s CPU      5.44s WALL (     489 calls)
     cegterg:upda :      3.93s CPU      3.94s WALL (     489 calls)
     cegterg:last :      1.54s CPU      1.55s WALL (     144 calls)

     Called by h_psi:
     h_psi:vloc   :     56.92s CPU     57.66s WALL (     633 calls)
     h_psi:vnl    :      8.86s CPU      8.88s WALL (     633 calls)
     add_vuspsi   :      4.17s CPU      4.17s WALL (     633 calls)
     vhpsi        :      4.78s CPU      4.83s WALL (     633 calls)

     General routines
     calbec       :      9.76s CPU      9.82s WALL (    1554 calls)
     fft          :      0.87s CPU      0.87s WALL (      75 calls)
     ffts         :      0.03s CPU      0.02s WALL (       9 calls)
     fftw         :     54.15s CPU     54.93s WALL (   38632 calls)
     interpolate  :      0.13s CPU      0.14s WALL (       9 calls)
     davcio       :      0.00s CPU      0.40s WALL (     324 calls)

     Parallel routines
     fft_scatter  :     15.56s CPU     16.17s WALL (   38716 calls)
     Hubbard U routines
     new_ns       :      0.97s CPU      1.13s WALL (       4 calls)
     vhpsi        :      4.78s CPU      4.83s WALL (     633 calls)

     PWSCF        :  2m21.49s CPU     2m23.54s WALL


   This run was terminated on:   8:10:55  11Nov2012            

=------------------------------------------------------------------------------=
