   JOB DONE.
=------------------------------------------------------------------------------=

     Program PWSCF v.5.0.1 starts on 11Nov2012 at  7:53:56 

     This program is part of the open-source Quantum ESPRESSO suite
     for quantum simulation of materials; please cite
         "P. Giannozzi et al., J. Phys.:Condens. Matter 21 395502 (2009);
          URL http://www.quantum-espresso.org", 
     in publications or presentations arising from this work. More details at
     http://www.quantum-espresso.org/quote.php

     Parallel version (MPI), running on     2 processors
     R & G space division:  proc/pool =    2

     Current dimensions of program PWSCF are:
     Max number of different atomic species (ntypx) = 10
     Max number of k-points (npk) =  40000
     Max angular momentum in pseudopotentials (lmaxx) =  3
     Reading input from CoLaO_U0_a-15.in
               file Co.pbe-nd-rrkjus.UPF: wavefunction(s)  4S 3D renormalized
               file O.pbe-rrkjus.UPF: wavefunction(s)  2S renormalized
               file O.pbe-rrkjus.UPF: wavefunction(s)  2S renormalized

     Subspace diagonalization in iterative solution of the eigenvalue problem:
     a serial algorithm will be used


     Parallelization info
     --------------------
     sticks:   dense  smooth     PW     G-vecs:    dense   smooth      PW
     Min        1112     444    131                34808     8786    1448
     Max        1113     445    132                34809     8787    1449
     Sum        2225     889    263                69617    17573    2897


     Title: 
     GGA + U, U = 1D-40, alpha = -0.150                                         


     bravais-lattice index     =            5
     lattice parameter (alat)  =      10.3292  a.u.
     unit-cell volume          =     793.0599 (a.u.)^3
     number of atoms/cell      =           10
     number of atomic types    =            4
     number of electrons       =        76.00
     number of Kohn-Sham states=           46
     kinetic-energy cutoff     =      30.0000  Ry
     charge density cutoff     =     300.0000  Ry
     convergence threshold     =      1.0E-08
     mixing beta               =       0.2000
     number of iterations used =            8  plain     mixing
     Exchange-correlation      =  SLA  PW   PBE  PBE ( 1 4 3 4 0)
     EXX-fraction              =        0.00

     celldm(1)=  10.329242  celldm(2)=   0.000000  celldm(3)=   0.000000
     celldm(4)=   0.488100  celldm(5)=   0.000000  celldm(6)=   0.000000

     crystal axes: (cart. coord. in units of alat)
               a(1) = (   0.505915  -0.292090   0.811624 )  
               a(2) = (   0.000000   0.584180   0.811624 )  
               a(3) = (  -0.505915  -0.292090   0.811624 )  

     reciprocal axes: (cart. coord. in units 2 pi/alat)
               b(1) = (  0.988308 -0.570600  0.410699 )  
               b(2) = (  0.000000  1.141200  0.410699 )  
               b(3) = ( -0.988308 -0.570600  0.410699 )  


     PseudoPot. # 1 for Co read from file:
     /home/mcurnan/dft-course/Project1/example_LaCoO3/Co.pbe-nd-rrkjus.UPF
     MD5 check sum: 3e47a84addf5e975e0edeaeee2a73f59
     Pseudo is Ultrasoft + core correction, Zval =  9.0
     Generated by new atomic code, or converted to UPF format
     Using radial grid of  961 points,  6 beta functions with: 
                l(1) =   0
                l(2) =   0
                l(3) =   1
                l(4) =   1
                l(5) =   2
                l(6) =   2
     Q(r) pseudized with 0 coefficients 


     PseudoPot. # 2 for La read from file:
     /home/mcurnan/dft-course/Project1/example_LaCoO3/La.pbe-nsp-van.UPF
     MD5 check sum: b2f11743f52dde65f77d1302becd7929
     Pseudo is Ultrasoft + core correction, Zval = 11.0
     Generated by new atomic code, or converted to UPF format
     Using radial grid of  907 points,  6 beta functions with: 
                l(1) =   0
                l(2) =   0
                l(3) =   1
                l(4) =   1
                l(5) =   2
                l(6) =   2
     Q(r) pseudized with  6 coefficients,  rinner =    1.200   1.200   1.200
                                                       1.200   1.200

     PseudoPot. # 3 for O  read from file:
     /home/mcurnan/dft-course/Project1/example_LaCoO3/O.pbe-rrkjus.UPF
     MD5 check sum: 390ba29e75625707450f3bd3f0eb6be9
     Pseudo is Ultrasoft, Zval =  6.0
     Generated by new atomic code, or converted to UPF format
     Using radial grid of 1269 points,  4 beta functions with: 
                l(1) =   0
                l(2) =   0
                l(3) =   1
                l(4) =   1
     Q(r) pseudized with 0 coefficients 


     PseudoPot. # 4 for O  read from file:
     /home/mcurnan/dft-course/Project1/example_LaCoO3/O.pbe-rrkjus.UPF
     MD5 check sum: 390ba29e75625707450f3bd3f0eb6be9
     Pseudo is Ultrasoft, Zval =  6.0
     Generated by new atomic code, or converted to UPF format
     Using radial grid of 1269 points,  4 beta functions with: 
                l(1) =   0
                l(2) =   0
                l(3) =   1
                l(4) =   1
     Q(r) pseudized with 0 coefficients 


     atomic species   valence    mass     pseudopotential
        Co1            9.00     1.00000     Co( 1.00)
        La1           11.00     1.00000     La( 1.00)
        O1             6.00     1.00000     O ( 1.00)
        O2             6.00     1.00000     O ( 1.00)
 -----
     simplified LDA+U calculation, Hubbard_lmax = 2
     atomic species  L   Hubbard U  Hubbard alpha
        Co1          2    0.000000    0.000000
        La1          2    0.000000    0.000000
        O1           1    0.000000   -0.150000
        O2           1    0.000000    0.000000
 -----

     No symmetry found


                                    s                        frac. trans.

      isym =  1     identity                                     

 cryst.   s( 1) = (     1          0          0      )
                  (     0          1          0      )
                  (     0          0          1      )

 cart.    s( 1) = (  1.0000000  0.0000000  0.0000000 )
                  (  0.0000000  1.0000000  0.0000000 )
                  (  0.0000000  0.0000000  1.0000000 )


     point group C_1 (1)    
     there are  1 classes
     the character table:

       E    
A      1.00

     the symmetry operations in each class:
     E        1

   Cartesian axes

     site n.     atom                  positions (alat units)
         1           Co1 tau(   1) = (   0.2228050  -0.1992639   1.0141240  )
         2           Co1 tau(   2) = (  -0.2831100   0.0928263   1.4199360  )
         3           La1 tau(   3) = (  -0.2831100   0.0928263   0.8112181  )
         4           La1 tau(   4) = (   0.2228050   0.3849164   1.2170300  )
         5           O1  tau(   5) = (   0.0000000   0.0000000   0.0000000  )
         6           O2  tau(   6) = (   0.0008601   0.1861491   1.6232478  )
         7           O2  tau(   7) = (   0.1616398   0.0923297   0.8116239  )
         8           O2  tau(   8) = (  -0.0603051  -0.1064377   1.2166242  )
         9           O2  tau(   9) = (   0.4447499  -0.0004966   1.2166242  )
        10           O2  tau(  10) = (  -0.2219449   0.3854130   1.2166242  )

   Crystallographic axes

     site n.     atom                  positions (cryst. coord.)
         1           Co1 tau(   1) = (  0.7504000  0.1891000  0.3100000  )
         2           Co1 tau(   2) = (  0.2504000  0.6891000  0.8100000  )
         3           La1 tau(   3) = (  0.0004000  0.4391000  0.5600000  )
         4           La1 tau(   4) = (  0.5004000  0.9391000  0.0600000  )
         5           O1  tau(   5) = (  0.0000000  0.0000000  0.0000000  )
         6           O2  tau(   6) = (  0.5613000  0.8791000  0.5596000  )
         7           O2  tau(   7) = (  0.4404000  0.4387000  0.1209000  )
         8           O2  tau(   8) = (  0.5008000  0.3782000  0.6200000  )
         9           O2  tau(   9) = (  0.9395000  0.4991000  0.0604000  )
        10           O2  tau(  10) = (  0.0604000  0.9395000  0.4991000  )

     number of k points=    36  gaussian smearing, width (Ry)=  0.0300
                       cart. coord. in units 2pi/alat
        k(    1) = (   0.0000000   0.0000000   0.0000000), wk =   0.0312500
        k(    2) = (  -0.2470771  -0.1426500   0.1026748), wk =   0.0625000
        k(    3) = (   0.4941541   0.2853000  -0.2053496), wk =   0.0312500
        k(    4) = (  -0.2470771   0.1426500   0.2053496), wk =   0.0625000
        k(    5) = (   0.4941541   0.5706001  -0.1026748), wk =   0.0625000
        k(    6) = (   0.2470771   0.4279500   0.0000000), wk =   0.0625000
        k(    7) = (   0.4941541  -0.2853000  -0.4106993), wk =   0.0312500
        k(    8) = (   0.0000000   0.0000000   0.3080244), wk =   0.0625000
        k(    9) = (   0.7412312   0.4279500   0.0000000), wk =   0.0625000
        k(   10) = (   0.4941541   0.2853000   0.1026748), wk =   0.0625000
        k(   11) = (   0.7412312  -0.4279500  -0.3080244), wk =   0.0625000
        k(   12) = (   0.4941541  -0.5706001  -0.2053496), wk =   0.0625000
        k(   13) = (   0.0000000   0.0000000  -0.6160489), wk =   0.0312500
        k(   14) = (  -0.2470771   0.1426500  -0.1026748), wk =   0.0625000
        k(   15) = (   0.0000000   0.2853000   0.1026748), wk =   0.0625000
        k(   16) = (   0.4941541  -0.2853000   0.2053496), wk =   0.0312500
        k(   17) = (   0.0000000  -0.5706001  -0.2053496), wk =   0.0312500
        k(   18) = (  -0.2470771  -0.1426500  -0.2053496), wk =   0.0625000
        k(   19) = (   0.0000000  -0.2853000   0.2053496), wk =   0.0625000
        k(   20) = (   0.4941541  -0.5706001   0.1026748), wk =   0.0625000
        k(   21) = (  -0.7412312   0.1426500  -0.1026748), wk =   0.0625000
        k(   22) = (   0.2470771  -0.7132501  -0.1026748), wk =   0.0625000
        k(   23) = (  -0.7412312  -0.1426500   0.1026748), wk =   0.0625000
        k(   24) = (   0.2470771   0.7132501   0.1026748), wk =   0.0625000
        k(   25) = (   0.2470771  -0.4279500   0.0000000), wk =   0.0625000
        k(   26) = (  -0.4941541   0.0000000   0.0000000), wk =   0.0625000
        k(   27) = (   0.4941541   0.2853000   0.4106993), wk =   0.0312500
        k(   28) = (   0.0000000   0.5706001  -0.4106993), wk =   0.0312500
        k(   29) = (   0.7412312  -0.4279500   0.0000000), wk =   0.0625000
        k(   30) = (   0.0000000  -0.8559001   0.0000000), wk =   0.0625000
        k(   31) = (   0.4941541  -0.2853000  -0.1026748), wk =   0.0625000
        k(   32) = (   0.0000000  -0.5706001   0.1026748), wk =   0.0625000
        k(   33) = (   0.7412312   0.4279500   0.3080244), wk =   0.0625000
        k(   34) = (   0.0000000   0.8559001  -0.3080244), wk =   0.0625000
        k(   35) = (   0.2470771   0.7132501  -0.2053496), wk =   0.0625000
        k(   36) = (  -0.7412312  -0.1426500  -0.2053496), wk =   0.0625000

                       cryst. coord.
        k(    1) = (   0.0000000   0.0000000   0.0000000), wk =   0.0312500
        k(    2) = (   0.0000000   0.0000000   0.2500000), wk =   0.0625000
        k(    3) = (   0.0000000   0.0000000  -0.5000000), wk =   0.0312500
        k(    4) = (   0.0000000   0.2500000   0.2500000), wk =   0.0625000
        k(    5) = (   0.0000000   0.2500000  -0.5000000), wk =   0.0625000
        k(    6) = (   0.0000000   0.2500000  -0.2500000), wk =   0.0625000
        k(    7) = (   0.0000000  -0.5000000  -0.5000000), wk =   0.0312500
        k(    8) = (   0.2500000   0.2500000   0.2500000), wk =   0.0625000
        k(    9) = (   0.2500000   0.2500000  -0.5000000), wk =   0.0625000
        k(   10) = (   0.2500000   0.2500000  -0.2500000), wk =   0.0625000
        k(   11) = (   0.2500000  -0.5000000  -0.5000000), wk =   0.0625000
        k(   12) = (   0.2500000  -0.5000000  -0.2500000), wk =   0.0625000
        k(   13) = (  -0.5000000  -0.5000000  -0.5000000), wk =   0.0312500
        k(   14) = (  -0.2500000   0.0000000   0.0000000), wk =   0.0625000
        k(   15) = (   0.0000000   0.2500000   0.0000000), wk =   0.0625000
        k(   16) = (   0.5000000   0.0000000   0.0000000), wk =   0.0312500
        k(   17) = (   0.0000000  -0.5000000   0.0000000), wk =   0.0312500
        k(   18) = (  -0.2500000  -0.2500000   0.0000000), wk =   0.0625000
        k(   19) = (   0.2500000   0.0000000   0.2500000), wk =   0.0625000
        k(   20) = (   0.5000000  -0.2500000   0.0000000), wk =   0.0625000
        k(   21) = (  -0.5000000   0.0000000   0.2500000), wk =   0.0625000
        k(   22) = (   0.2500000  -0.5000000   0.0000000), wk =   0.0625000
        k(   23) = (  -0.2500000   0.0000000   0.5000000), wk =   0.0625000
        k(   24) = (   0.0000000   0.5000000  -0.2500000), wk =   0.0625000
        k(   25) = (   0.2500000  -0.2500000   0.0000000), wk =   0.0625000
        k(   26) = (  -0.2500000   0.0000000   0.2500000), wk =   0.0625000
        k(   27) = (   0.5000000   0.5000000   0.0000000), wk =   0.0312500
        k(   28) = (  -0.5000000   0.0000000  -0.5000000), wk =   0.0312500
        k(   29) = (   0.5000000  -0.2500000  -0.2500000), wk =   0.0625000
        k(   30) = (   0.2500000  -0.5000000   0.2500000), wk =   0.0625000
        k(   31) = (   0.2500000  -0.2500000  -0.2500000), wk =   0.0625000
        k(   32) = (   0.2500000  -0.2500000   0.2500000), wk =   0.0625000
        k(   33) = (   0.5000000   0.5000000  -0.2500000), wk =   0.0625000
        k(   34) = (  -0.5000000   0.2500000  -0.5000000), wk =   0.0625000
        k(   35) = (  -0.2500000   0.2500000  -0.5000000), wk =   0.0625000
        k(   36) = (  -0.5000000  -0.2500000   0.2500000), wk =   0.0625000

     Dense  grid:    69617 G-vectors     FFT dimensions: (  60,  60,  60)

     Smooth grid:    17573 G-vectors     FFT dimensions: (  40,  40,  40)

     Largest allocated arrays     est. size (Mb)     dimensions
        Kohn-Sham Wavefunctions         0.79 Mb     (   1119,   46)
        Atomic wavefunctions            1.06 Mb     (   1119,   62)
        NL pseudopotentials             2.05 Mb     (   1119,  120)
        Each V/rho on FFT grid          1.65 Mb     ( 108000)
        Each G-vector array             0.27 Mb     (  34808)
        G-vector shells                 0.04 Mb     (   4682)
     Largest temporary arrays     est. size (Mb)     dimensions
        Auxiliary wavefunctions         3.14 Mb     (   1119,  184)
        Each subspace H/S matrix        0.52 Mb     ( 184, 184)
        Each <psi_i|beta_j> matrix      0.08 Mb     (    120,   46)
        Arrays for rho mixing          13.18 Mb     ( 108000,   8)

     Check: negative/imaginary core charge=   -0.000028    0.000000

     The initial density is read from file :
     /home/mcurnan/dft-course/Project1/example_LaCoO3/0/O/alpha/CoLaO_U0.save/charge-density.dat

 --- in v_hubbard ---
Hubbard energy   -0.0599
 -------
     Number of +U iterations with fixed ns =  0
     Starting occupations:
 --- enter write_ns ---
 LDA+U parameters:
U( 1)     =  0.00000000
alpha( 1) =  0.00000000
U( 2)     =  0.00000000
alpha( 2) =  0.00000000
U( 3)     =  0.00000000
alpha( 3) = -0.15000000
U( 4)     =  0.00000000
alpha( 4) =  0.00000000
atom    1   Tr[ns(na)] =   8.02205
    eigenvalues: 
  0.596  0.596  0.938  0.941  0.941
    eigenvectors:
  0.000  0.000  1.000  0.000  0.000
  0.057  0.598  0.000  0.178  0.167
  0.598  0.057  0.000  0.167  0.178
  0.210  0.135  0.000  0.095  0.560
  0.135  0.210  0.000  0.560  0.095
    occupations:
  0.938  0.000  0.000  0.000  0.000
  0.000  0.715  0.000 -0.060  0.152
  0.000  0.000  0.715  0.152  0.060
  0.000 -0.060  0.152  0.822  0.000
  0.000  0.152  0.060  0.000  0.822
atom    2   Tr[ns(na)] =   8.02142
    eigenvalues: 
  0.595  0.595  0.938  0.941  0.941
    eigenvectors:
  0.000  0.000  1.000  0.000  0.000
  0.332  0.323  0.000  0.023  0.322
  0.323  0.332  0.000  0.322  0.023
  0.288  0.057  0.000  0.647  0.008
  0.057  0.288  0.000  0.008  0.647
    occupations:
  0.938  0.000  0.000  0.000  0.000
  0.000  0.715  0.000  0.060  0.153
  0.000  0.000  0.715  0.153 -0.060
  0.000  0.060  0.153  0.822  0.000
  0.000  0.153 -0.060  0.000  0.822
atom    3   Tr[ns(na)] =   3.80282
    eigenvalues: 
  0.355  0.355  0.384  0.403  0.403
    eigenvectors:
  0.000  0.000  1.000  0.000  0.000
  0.065  0.856  0.000  0.058  0.021
  0.856  0.065  0.000  0.021  0.058
  0.073  0.006  0.000  0.250  0.670
  0.006  0.073  0.000  0.670  0.250
    occupations:
  0.384  0.000  0.000  0.000  0.000
  0.000  0.359  0.000  0.000  0.013
  0.000  0.000  0.359  0.013  0.000
  0.000  0.000  0.013  0.399  0.000
  0.000  0.013  0.000  0.000  0.399
atom    4   Tr[ns(na)] =   3.80282
    eigenvalues: 
  0.355  0.355  0.384  0.403  0.403
    eigenvectors:
  0.000  0.000  1.000  0.000  0.000
  0.729  0.192  0.000  0.048  0.032
  0.192  0.729  0.000  0.032  0.048
  0.017  0.062  0.000  0.359  0.562
  0.062  0.017  0.000  0.562  0.359
    occupations:
  0.384  0.000  0.000  0.000  0.000
  0.000  0.359  0.000  0.000  0.013
  0.000  0.000  0.359  0.013  0.000
  0.000  0.000  0.013  0.399  0.000
  0.000  0.013  0.000  0.000  0.399
atom    5   Tr[ns(na)] =   5.43357
    eigenvalues: 
  0.846  0.929  0.941
    eigenvectors:
  0.340  0.000  0.660
  0.496  0.250  0.255
  0.164  0.750  0.086
    occupations:
  0.909 -0.039  0.022
 -0.039  0.891  0.022
  0.022  0.022  0.917
atom    6   Tr[ns(na)] =   5.43358
    eigenvalues: 
  0.846  0.929  0.941
    eigenvectors:
  0.340  0.000  0.660
  0.494  0.250  0.256
  0.166  0.750  0.085
    occupations:
  0.909  0.039  0.022
  0.039  0.891 -0.022
  0.022 -0.022  0.917
atom    7   Tr[ns(na)] =   5.43358
    eigenvalues: 
  0.846  0.929  0.941
    eigenvectors:
  0.340  0.000  0.660
  0.000  1.000  0.000
  0.660  0.000  0.340
    occupations:
  0.909  0.000 -0.045
  0.000  0.929  0.000
 -0.045  0.000  0.879
atom    8   Tr[ns(na)] =   5.43357
    eigenvalues: 
  0.846  0.929  0.941
    eigenvectors:
  0.340  0.000  0.660
  0.496  0.250  0.255
  0.164  0.750  0.086
    occupations:
  0.909 -0.039  0.022
 -0.039  0.891  0.022
  0.022  0.022  0.917
atom    9   Tr[ns(na)] =   5.43358
    eigenvalues: 
  0.846  0.929  0.941
    eigenvectors:
  0.340  0.000  0.660
  0.494  0.250  0.256
  0.166  0.750  0.085
    occupations:
  0.909  0.039  0.022
  0.039  0.891 -0.022
  0.022 -0.022  0.917
atom   10   Tr[ns(na)] =   5.43358
    eigenvalues: 
  0.846  0.929  0.941
    eigenvectors:
  0.340  0.000  0.660
  0.000  1.000  0.000
  0.660  0.000  0.340
    occupations:
  0.909  0.000 -0.045
  0.000  0.929  0.000
 -0.045  0.000  0.879
N of occupied +U levels =  56.2505796
 --- exit write_ns ---
 LDA+U Projector read from file 
     Starting wfc from file

     total cpu time spent up to now is        7.4 secs

     per-process dynamical memory:    62.8 Mb

     Self-consistent Calculation

     iteration #  1     ecut=    30.00 Ry     beta=0.20
     Davidson diagonalization with overlap
     c_bands:  1 eigenvalues not converged
     c_bands:  1 eigenvalues not converged
     c_bands:  1 eigenvalues not converged
     c_bands:  1 eigenvalues not converged
     c_bands:  1 eigenvalues not converged
     c_bands:  1 eigenvalues not converged
     c_bands:  1 eigenvalues not converged
     c_bands:  1 eigenvalues not converged
     c_bands:  1 eigenvalues not converged
     c_bands:  1 eigenvalues not converged
     c_bands:  1 eigenvalues not converged
     c_bands:  1 eigenvalues not converged
     c_bands:  1 eigenvalues not converged
     c_bands:  1 eigenvalues not converged
     c_bands:  1 eigenvalues not converged
     c_bands:  1 eigenvalues not converged
     c_bands:  1 eigenvalues not converged
     c_bands:  1 eigenvalues not converged
     c_bands:  1 eigenvalues not converged
     c_bands:  1 eigenvalues not converged
     ethr =  1.00E-10,  avg # of iterations = 17.0
 --- enter write_ns ---
 LDA+U parameters:
U( 1)     =  0.00000000
alpha( 1) =  0.00000000
U( 2)     =  0.00000000
alpha( 2) =  0.00000000
U( 3)     =  0.00000000
alpha( 3) = -0.15000000
U( 4)     =  0.00000000
alpha( 4) =  0.00000000
atom    1   Tr[ns(na)] =   8.01556
    eigenvalues: 
  0.594  0.595  0.938  0.940  0.941
    eigenvectors:
  0.000  0.000  0.918  0.076  0.007
  0.554  0.101  0.022  0.152  0.171
  0.101  0.554  0.007  0.168  0.171
  0.171  0.175  0.032  0.520  0.102
  0.174  0.171  0.022  0.085  0.549
    occupations:
  0.938  0.000  0.000  0.000  0.000
  0.000  0.713  0.000 -0.061  0.153
  0.000  0.000  0.714  0.153  0.060
  0.000 -0.061  0.153  0.821  0.000
  0.000  0.153  0.060  0.000  0.821
atom    2   Tr[ns(na)] =   8.01517
    eigenvalues: 
  0.593  0.594  0.938  0.941  0.941
    eigenvectors:
  0.000  0.000  0.931  0.064  0.005
  0.419  0.235  0.017  0.304  0.024
  0.236  0.420  0.006  0.020  0.319
  0.024  0.321  0.001  0.009  0.645
  0.321  0.025  0.044  0.603  0.007
    occupations:
  0.938  0.000  0.000  0.000  0.001
  0.000  0.714  0.001  0.060  0.154
  0.000  0.001  0.714  0.154 -0.060
  0.000  0.060  0.154  0.822  0.000
  0.001  0.154 -0.060  0.000  0.821
atom    3   Tr[ns(na)] =   3.79941
    eigenvalues: 
  0.355  0.355  0.384  0.403  0.403
    eigenvectors:
  0.000  0.000  1.000  0.000  0.000
  0.229  0.688  0.000  0.063  0.019
  0.690  0.229  0.000  0.020  0.062
  0.060  0.021  0.000  0.226  0.692
  0.021  0.061  0.000  0.691  0.227
    occupations:
  0.384  0.000  0.000  0.000  0.000
  0.000  0.359  0.000  0.000  0.013
  0.000  0.000  0.359  0.013  0.000
  0.000  0.000  0.013  0.399  0.000
  0.000  0.013  0.000  0.000  0.399
atom    4   Tr[ns(na)] =   3.79970
    eigenvalues: 
  0.355  0.355  0.384  0.403  0.403
    eigenvectors:
  0.000  0.000  1.000  0.000  0.000
  0.691  0.232  0.000  0.057  0.020
  0.234  0.687  0.000  0.019  0.060
  0.020  0.059  0.000  0.235  0.686
  0.056  0.021  0.000  0.690  0.234
    occupations:
  0.384  0.000  0.000  0.000  0.000
  0.000  0.359  0.000  0.000  0.013
  0.000  0.000  0.359  0.013  0.000
  0.000  0.000  0.013  0.399  0.000
  0.000  0.013  0.000  0.000  0.399
atom    5   Tr[ns(na)] =   5.45540
    eigenvalues: 
  0.851  0.933  0.944
    eigenvectors:
  0.339  0.000  0.661
  0.496  0.250  0.254
  0.164  0.750  0.085
    occupations:
  0.912 -0.038  0.022
 -0.038  0.895  0.022
  0.022  0.022  0.920
atom    6   Tr[ns(na)] =   5.43244
    eigenvalues: 
  0.846  0.929  0.941
    eigenvectors:
  0.340  0.000  0.660
  0.494  0.248  0.257
  0.165  0.752  0.083
    occupations:
  0.909  0.039  0.022
  0.039  0.891 -0.022
  0.022 -0.022  0.916
atom    7   Tr[ns(na)] =   5.43245
    eigenvalues: 
  0.846  0.929  0.941
    eigenvectors:
  0.340  0.000  0.660
  0.000  1.000  0.000
  0.660  0.000  0.340
    occupations:
  0.909  0.000 -0.045
  0.000  0.929  0.000
 -0.045  0.000  0.878
atom    8   Tr[ns(na)] =   5.43237
    eigenvalues: 
  0.846  0.929  0.941
    eigenvectors:
  0.340  0.000  0.660
  0.496  0.250  0.255
  0.164  0.750  0.085
    occupations:
  0.909 -0.039  0.023
 -0.039  0.891  0.022
  0.023  0.022  0.917
atom    9   Tr[ns(na)] =   5.43246
    eigenvalues: 
  0.846  0.929  0.941
    eigenvectors:
  0.340  0.000  0.660
  0.494  0.249  0.257
  0.166  0.751  0.083
    occupations:
  0.909  0.039  0.022
  0.039  0.891 -0.022
  0.022 -0.022  0.916
atom   10   Tr[ns(na)] =   5.43246
    eigenvalues: 
  0.846  0.929  0.941
    eigenvectors:
  0.340  0.000  0.660
  0.000  1.000  0.000
  0.660  0.000  0.340
    occupations:
  0.909  0.000 -0.045
  0.000  0.929  0.000
 -0.045  0.000  0.878
N of occupied +U levels =  56.2474130
 --- exit write_ns ---
 --- in v_hubbard ---
Hubbard energy   -0.0600
 -------

     total cpu time spent up to now is       92.4 secs

     total energy              =    -538.39295201 Ry
     Harris-Foulkes estimate   =    -538.39308496 Ry
     estimated scf accuracy    <       0.00040350 Ry

     iteration #  2     ecut=    30.00 Ry     beta=0.20
     Davidson diagonalization with overlap
     ethr =  5.31E-07,  avg # of iterations =  2.0
 --- enter write_ns ---
 LDA+U parameters:
U( 1)     =  0.00000000
alpha( 1) =  0.00000000
U( 2)     =  0.00000000
alpha( 2) =  0.00000000
U( 3)     =  0.00000000
alpha( 3) = -0.15000000
U( 4)     =  0.00000000
alpha( 4) =  0.00000000
atom    1   Tr[ns(na)] =   8.02276
    eigenvalues: 
  0.595  0.596  0.938  0.941  0.941
    eigenvectors:
  0.000  0.000  0.993  0.007  0.001
  0.554  0.101  0.002  0.130  0.213
  0.101  0.554  0.001  0.213  0.131
  0.171  0.174  0.003  0.599  0.053
  0.174  0.171  0.002  0.052  0.602
    occupations:
  0.938  0.000  0.000  0.000  0.000
  0.000  0.715  0.000 -0.061  0.153
  0.000  0.000  0.715  0.152  0.060
  0.000 -0.061  0.152  0.822  0.000
  0.000  0.153  0.060  0.000  0.822
atom    2   Tr[ns(na)] =   8.02095
    eigenvalues: 
  0.594  0.596  0.938  0.941  0.941
    eigenvectors:
  0.000  0.000  0.994  0.005  0.001
  0.420  0.234  0.002  0.338  0.006
  0.235  0.420  0.000  0.006  0.339
  0.024  0.321  0.000  0.038  0.617
  0.321  0.024  0.004  0.613  0.038
    occupations:
  0.938  0.000  0.000  0.000  0.000
  0.000  0.714  0.000  0.060  0.153
  0.000  0.000  0.715  0.153 -0.060
  0.000  0.060  0.153  0.822  0.000
  0.000  0.153 -0.060  0.000  0.821
atom    3   Tr[ns(na)] =   3.80076
    eigenvalues: 
  0.355  0.355  0.384  0.403  0.403
    eigenvectors:
  0.000  0.000  1.000  0.000  0.000
  0.227  0.693  0.000  0.062  0.019
  0.693  0.227  0.000  0.019  0.062
  0.060  0.020  0.000  0.221  0.699
  0.020  0.060  0.000  0.699  0.221
    occupations:
  0.384  0.000  0.000  0.000  0.000
  0.000  0.359  0.000  0.000  0.013
  0.000  0.000  0.359  0.013  0.000
  0.000  0.000  0.013  0.399  0.000
  0.000  0.013  0.000  0.000  0.399
atom    4   Tr[ns(na)] =   3.80081
    eigenvalues: 
  0.355  0.355  0.384  0.403  0.403
    eigenvectors:
  0.000  0.000  1.000  0.000  0.000
  0.680  0.241  0.000  0.060  0.019
  0.241  0.679  0.000  0.019  0.061
  0.021  0.059  0.000  0.231  0.690
  0.057  0.022  0.000  0.691  0.230
    occupations:
  0.384  0.000  0.000  0.000  0.000
  0.000  0.359  0.000  0.000  0.013
  0.000  0.000  0.359  0.013  0.000
  0.000  0.000  0.013  0.399  0.000
  0.000  0.013  0.000  0.000  0.399
atom    5   Tr[ns(na)] =   5.44217
    eigenvalues: 
  0.848  0.931  0.942
    eigenvectors:
  0.340  0.000  0.660
  0.496  0.250  0.254
  0.164  0.750  0.085
    occupations:
  0.910 -0.038  0.022
 -0.038  0.893  0.022
  0.022  0.022  0.918
atom    6   Tr[ns(na)] =   5.43229
    eigenvalues: 
  0.846  0.929  0.941
    eigenvectors:
  0.340  0.000  0.660
  0.495  0.250  0.256
  0.165  0.750  0.084
    occupations:
  0.909  0.039  0.023
  0.039  0.891 -0.022
  0.023 -0.022  0.916
atom    7   Tr[ns(na)] =   5.43229
    eigenvalues: 
  0.846  0.929  0.941
    eigenvectors:
  0.340  0.000  0.660
  0.000  1.000  0.000
  0.660  0.000  0.340
    occupations:
  0.909  0.000 -0.045
  0.000  0.929  0.000
 -0.045  0.000  0.878
atom    8   Tr[ns(na)] =   5.43305
    eigenvalues: 
  0.846  0.929  0.941
    eigenvectors:
  0.340  0.000  0.660
  0.496  0.250  0.255
  0.164  0.750  0.085
    occupations:
  0.909 -0.039  0.023
 -0.039  0.891  0.022
  0.023  0.022  0.917
atom    9   Tr[ns(na)] =   5.43211
    eigenvalues: 
  0.846  0.929  0.941
    eigenvectors:
  0.341  0.000  0.659
  0.493  0.250  0.256
  0.166  0.750  0.084
    occupations:
  0.909  0.039  0.023
  0.039  0.891 -0.022
  0.023 -0.022  0.916
atom   10   Tr[ns(na)] =   5.43211
    eigenvalues: 
  0.846  0.929  0.941
    eigenvectors:
  0.341  0.000  0.659
  0.000  1.000  0.000
  0.659  0.000  0.341
    occupations:
  0.909  0.000 -0.045
  0.000  0.929  0.000
 -0.045  0.000  0.878
N of occupied +U levels =  56.2493061
 --- exit write_ns ---
 --- in v_hubbard ---
Hubbard energy   -0.0600
 -------

     total cpu time spent up to now is      119.9 secs

     total energy              =    -538.39300865 Ry
     Harris-Foulkes estimate   =    -538.39301234 Ry
     estimated scf accuracy    <       0.00001265 Ry

     iteration #  3     ecut=    30.00 Ry     beta=0.20
     Davidson diagonalization with overlap
     ethr =  1.66E-08,  avg # of iterations =  2.0
 --- enter write_ns ---
 LDA+U parameters:
U( 1)     =  0.00000000
alpha( 1) =  0.00000000
U( 2)     =  0.00000000
alpha( 2) =  0.00000000
U( 3)     =  0.00000000
alpha( 3) = -0.15000000
U( 4)     =  0.00000000
alpha( 4) =  0.00000000
atom    1   Tr[ns(na)] =   8.01667
    eigenvalues: 
  0.595  0.596  0.938  0.940  0.940
    eigenvectors:
  0.000  0.000  0.993  0.006  0.001
  0.553  0.102  0.002  0.142  0.201
  0.101  0.553  0.001  0.201  0.144
  0.171  0.174  0.003  0.585  0.067
  0.174  0.171  0.002  0.066  0.588
    occupations:
  0.938  0.000  0.000  0.000  0.000
  0.000  0.714  0.000 -0.061  0.153
  0.000  0.000  0.715  0.153  0.060
  0.000 -0.061  0.153  0.821  0.000
  0.000  0.153  0.060  0.000  0.821
atom    2   Tr[ns(na)] =   8.02213
    eigenvalues: 
  0.594  0.595  0.938  0.941  0.942
    eigenvectors:
  0.000  0.000  0.994  0.005  0.001
  0.420  0.234  0.002  0.334  0.010
  0.234  0.421  0.000  0.010  0.335
  0.024  0.321  0.000  0.027  0.628
  0.321  0.024  0.004  0.624  0.027
    occupations:
  0.938  0.000  0.000  0.000  0.000
  0.000  0.714  0.000  0.060  0.154
  0.000  0.000  0.715  0.153 -0.060
  0.000  0.060  0.153  0.822  0.000
  0.000  0.154 -0.060  0.000  0.822
atom    3   Tr[ns(na)] =   3.80083
    eigenvalues: 
  0.355  0.355  0.384  0.403  0.403
    eigenvectors:
  0.000  0.000  1.000  0.000  0.000
  0.228  0.692  0.000  0.063  0.017
  0.692  0.228  0.000  0.017  0.063
  0.060  0.020  0.000  0.198  0.722
  0.020  0.060  0.000  0.722  0.198
    occupations:
  0.384  0.000  0.000  0.000  0.000
  0.000  0.359  0.000  0.000  0.013
  0.000  0.000  0.359  0.013  0.000
  0.000  0.000  0.013  0.399  0.000
  0.000  0.013  0.000  0.000  0.399
atom    4   Tr[ns(na)] =   3.80086
    eigenvalues: 
  0.355  0.355  0.384  0.403  0.403
    eigenvectors:
  0.000  0.000  1.000  0.000  0.000
  0.097  0.824  0.000  0.059  0.019
  0.824  0.096  0.000  0.019  0.061
  0.072  0.008  0.000  0.231  0.689
  0.008  0.071  0.000  0.690  0.231
    occupations:
  0.384  0.000  0.000  0.000  0.000
  0.000  0.359  0.000  0.000  0.013
  0.000  0.000  0.359  0.013  0.000
  0.000  0.000  0.013  0.399  0.000
  0.000  0.013  0.000  0.000  0.399
atom    5   Tr[ns(na)] =   5.44245
    eigenvalues: 
  0.849  0.931  0.942
    eigenvectors:
  0.340  0.000  0.660
  0.496  0.250  0.254
  0.164  0.750  0.085
    occupations:
  0.910 -0.038  0.022
 -0.038  0.893  0.022
  0.022  0.022  0.918
atom    6   Tr[ns(na)] =   5.43315
    eigenvalues: 
  0.846  0.929  0.941
    eigenvectors:
  0.340  0.000  0.660
  0.495  0.249  0.256
  0.165  0.751  0.084
    occupations:
  0.909  0.039  0.022
  0.039  0.891 -0.022
  0.022 -0.022  0.917
atom    7   Tr[ns(na)] =   5.43314
    eigenvalues: 
  0.846  0.929  0.941
    eigenvectors:
  0.340  0.000  0.660
  0.000  1.000  0.000
  0.660  0.000  0.340
    occupations:
  0.909  0.000 -0.045
  0.000  0.929  0.000
 -0.045  0.000  0.878
atom    8   Tr[ns(na)] =   5.43364
    eigenvalues: 
  0.846  0.929  0.941
    eigenvectors:
  0.340  0.000  0.660
  0.495  0.250  0.255
  0.164  0.750  0.086
    occupations:
  0.909 -0.039  0.022
 -0.039  0.891  0.022
  0.022  0.022  0.917
atom    9   Tr[ns(na)] =   5.43305
    eigenvalues: 
  0.846  0.929  0.941
    eigenvectors:
  0.340  0.000  0.660
  0.494  0.250  0.256
  0.166  0.750  0.084
    occupations:
  0.909  0.039  0.023
  0.039  0.891 -0.022
  0.023 -0.022  0.917
atom   10   Tr[ns(na)] =   5.43305
    eigenvalues: 
  0.846  0.929  0.941
    eigenvectors:
  0.340  0.000  0.660
  0.000  1.000  0.000
  0.660  0.000  0.340
    occupations:
  0.909  0.000 -0.045
  0.000  0.929  0.000
 -0.045  0.000  0.878
N of occupied +U levels =  56.2489681
 --- exit write_ns ---
 --- in v_hubbard ---
Hubbard energy   -0.0600
 -------

     total cpu time spent up to now is      149.2 secs

     total energy              =    -538.39300894 Ry
     Harris-Foulkes estimate   =    -538.39301183 Ry
     estimated scf accuracy    <       0.00002163 Ry

     iteration #  4     ecut=    30.00 Ry     beta=0.20
     Davidson diagonalization with overlap
     ethr =  1.66E-08,  avg # of iterations =  1.0
 --- enter write_ns ---
 LDA+U parameters:
U( 1)     =  0.00000000
alpha( 1) =  0.00000000
U( 2)     =  0.00000000
alpha( 2) =  0.00000000
U( 3)     =  0.00000000
alpha( 3) = -0.15000000
U( 4)     =  0.00000000
alpha( 4) =  0.00000000
atom    1   Tr[ns(na)] =   8.02442
    eigenvalues: 
  0.595  0.596  0.938  0.941  0.941
    eigenvectors:
  0.000  0.000  0.992  0.007  0.001
  0.554  0.102  0.002  0.148  0.195
  0.101  0.553  0.001  0.195  0.150
  0.172  0.174  0.003  0.578  0.073
  0.173  0.171  0.002  0.072  0.581
    occupations:
  0.938  0.000  0.000  0.000  0.000
  0.000  0.715  0.000 -0.061  0.153
  0.000  0.000  0.715  0.153  0.060
  0.000 -0.061  0.153  0.822  0.000
  0.000  0.153  0.060  0.000  0.822
atom    2   Tr[ns(na)] =   8.01488
    eigenvalues: 
  0.594  0.595  0.938  0.941  0.941
    eigenvectors:
  0.000  0.000  0.994  0.005  0.001
  0.421  0.234  0.002  0.332  0.012
  0.234  0.421  0.000  0.012  0.333
  0.024  0.321  0.000  0.022  0.633
  0.321  0.024  0.004  0.629  0.022
    occupations:
  0.938  0.000  0.000  0.000  0.000
  0.000  0.714  0.000  0.060  0.154
  0.000  0.000  0.714  0.153 -0.060
  0.000  0.060  0.153  0.821  0.000
  0.000  0.154 -0.060  0.000  0.821
atom    3   Tr[ns(na)] =   3.80087
    eigenvalues: 
  0.355  0.355  0.384  0.403  0.403
    eigenvectors:
  0.000  0.000  1.000  0.000  0.000
  0.228  0.692  0.000  0.064  0.016
  0.692  0.228  0.000  0.016  0.064
  0.060  0.021  0.000  0.187  0.732
  0.021  0.060  0.000  0.732  0.187
    occupations:
  0.384  0.000  0.000  0.000  0.000
  0.000  0.359  0.000  0.000  0.013
  0.000  0.000  0.359  0.013  0.000
  0.000  0.000  0.013  0.399  0.000
  0.000  0.013  0.000  0.000  0.399
atom    4   Tr[ns(na)] =   3.80090
    eigenvalues: 
  0.355  0.355  0.384  0.403  0.403
    eigenvectors:
  0.000  0.000  1.000  0.000  0.000
  0.163  0.758  0.000  0.059  0.020
  0.757  0.163  0.000  0.019  0.060
  0.065  0.014  0.000  0.232  0.688
  0.015  0.064  0.000  0.689  0.232
    occupations:
  0.384  0.000  0.000  0.000  0.000
  0.000  0.359  0.000  0.000  0.013
  0.000  0.000  0.359  0.013  0.000
  0.000  0.000  0.013  0.399  0.000
  0.000  0.013  0.000  0.000  0.399
atom    5   Tr[ns(na)] =   5.44232
    eigenvalues: 
  0.849  0.931  0.942
    eigenvectors:
  0.340  0.000  0.660
  0.496  0.249  0.254
  0.164  0.751  0.085
    occupations:
  0.910 -0.038  0.022
 -0.038  0.893  0.022
  0.022  0.022  0.918
atom    6   Tr[ns(na)] =   5.43307
    eigenvalues: 
  0.846  0.929  0.941
    eigenvectors:
  0.340  0.000  0.660
  0.494  0.250  0.256
  0.166  0.750  0.084
    occupations:
  0.909  0.039  0.023
  0.039  0.891 -0.022
  0.023 -0.022  0.917
atom    7   Tr[ns(na)] =   5.43307
    eigenvalues: 
  0.846  0.929  0.941
    eigenvectors:
  0.340  0.000  0.660
  0.000  1.000  0.000
  0.660  0.000  0.340
    occupations:
  0.909  0.000 -0.045
  0.000  0.929  0.000
 -0.045  0.000  0.878
atom    8   Tr[ns(na)] =   5.43353
    eigenvalues: 
  0.846  0.929  0.941
    eigenvectors:
  0.340  0.000  0.660
  0.496  0.249  0.255
  0.164  0.751  0.085
    occupations:
  0.909 -0.039  0.022
 -0.039  0.891  0.022
  0.022  0.022  0.917
atom    9   Tr[ns(na)] =   5.43298
    eigenvalues: 
  0.846  0.929  0.941
    eigenvectors:
  0.340  0.000  0.660
  0.493  0.251  0.256
  0.166  0.749  0.084
    occupations:
  0.909  0.039  0.023
  0.039  0.891 -0.022
  0.023 -0.022  0.917
atom   10   Tr[ns(na)] =   5.43298
    eigenvalues: 
  0.846  0.929  0.941
    eigenvectors:
  0.340  0.000  0.660
  0.000  1.000  0.000
  0.660  0.000  0.340
    occupations:
  0.909  0.000 -0.045
  0.000  0.929  0.000
 -0.045  0.000  0.878
N of occupied +U levels =  56.2490503
 --- exit write_ns ---
 --- in v_hubbard ---
Hubbard energy   -0.0600
 -------

     total cpu time spent up to now is      177.1 secs

     total energy              =    -538.39300968 Ry
     Harris-Foulkes estimate   =    -538.39301229 Ry
     estimated scf accuracy    <       0.00004147 Ry

     iteration #  5     ecut=    30.00 Ry     beta=0.20
     Davidson diagonalization with overlap
     ethr =  1.66E-08,  avg # of iterations =  1.0
 --- enter write_ns ---
 LDA+U parameters:
U( 1)     =  0.00000000
alpha( 1) =  0.00000000
U( 2)     =  0.00000000
alpha( 2) =  0.00000000
U( 3)     =  0.00000000
alpha( 3) = -0.15000000
U( 4)     =  0.00000000
alpha( 4) =  0.00000000
atom    1   Tr[ns(na)] =   8.02024
    eigenvalues: 
  0.595  0.596  0.938  0.941  0.941
    eigenvectors:
  0.000  0.000  0.992  0.007  0.001
  0.553  0.102  0.002  0.156  0.187
  0.102  0.553  0.001  0.187  0.158
  0.172  0.174  0.003  0.568  0.084
  0.174  0.171  0.002  0.082  0.571
    occupations:
  0.938  0.000  0.000  0.000  0.000
  0.000  0.714  0.000 -0.061  0.153
  0.000  0.000  0.715  0.153  0.060
  0.000 -0.061  0.153  0.821  0.000
  0.000  0.153  0.060  0.000  0.822
atom    2   Tr[ns(na)] =   8.01978
    eigenvalues: 
  0.594  0.595  0.938  0.941  0.941
    eigenvectors:
  0.000  0.000  0.993  0.006  0.001
  0.421  0.234  0.002  0.328  0.015
  0.234  0.421  0.001  0.015  0.329
  0.024  0.321  0.000  0.017  0.638
  0.321  0.024  0.004  0.634  0.017
    occupations:
  0.938  0.000  0.000  0.000  0.000
  0.000  0.714  0.000  0.060  0.153
  0.000  0.000  0.714  0.153 -0.060
  0.000  0.060  0.153  0.822  0.000
  0.000  0.153 -0.060  0.000  0.821
atom    3   Tr[ns(na)] =   3.80096
    eigenvalues: 
  0.355  0.355  0.384  0.403  0.403
    eigenvectors:
  0.000  0.000  1.000  0.000  0.000
  0.228  0.691  0.000  0.068  0.012
  0.691  0.228  0.000  0.012  0.068
  0.060  0.021  0.000  0.141  0.779
  0.021  0.060  0.000  0.779  0.141
    occupations:
  0.384  0.000  0.000  0.000  0.000
  0.000  0.359  0.000  0.000  0.013
  0.000  0.000  0.359  0.013  0.000
  0.000  0.000  0.013  0.399  0.000
  0.000  0.013  0.000  0.000  0.399
atom    4   Tr[ns(na)] =   3.80098
    eigenvalues: 
  0.355  0.355  0.384  0.403  0.403
    eigenvectors:
  0.000  0.000  1.000  0.000  0.000
  0.189  0.732  0.000  0.060  0.019
  0.731  0.189  0.000  0.019  0.061
  0.063  0.017  0.000  0.230  0.690
  0.017  0.062  0.000  0.691  0.230
    occupations:
  0.384  0.000  0.000  0.000  0.000
  0.000  0.359  0.000  0.000  0.013
  0.000  0.000  0.359  0.013  0.000
  0.000  0.000  0.013  0.399  0.000
  0.000  0.013  0.000  0.000  0.399
atom    5   Tr[ns(na)] =   5.44217
    eigenvalues: 
  0.849  0.931  0.942
    eigenvectors:
  0.340  0.000  0.660
  0.496  0.250  0.254
  0.164  0.750  0.085
    occupations:
  0.910 -0.038  0.022
 -0.038  0.893  0.022
  0.022  0.022  0.918
atom    6   Tr[ns(na)] =   5.43296
    eigenvalues: 
  0.846  0.929  0.941
    eigenvectors:
  0.340  0.000  0.660
  0.495  0.249  0.256
  0.165  0.751  0.084
    occupations:
  0.909  0.039  0.022
  0.039  0.891 -0.022
  0.022 -0.022  0.917
atom    7   Tr[ns(na)] =   5.43296
    eigenvalues: 
  0.846  0.929  0.941
    eigenvectors:
  0.340  0.000  0.660
  0.000  1.000  0.000
  0.660  0.000  0.340
    occupations:
  0.909  0.000 -0.045
  0.000  0.929  0.000
 -0.045  0.000  0.878
atom    8   Tr[ns(na)] =   5.43338
    eigenvalues: 
  0.846  0.929  0.941
    eigenvectors:
  0.340  0.000  0.660
  0.496  0.250  0.255
  0.164  0.750  0.086
    occupations:
  0.909 -0.039  0.022
 -0.039  0.891  0.022
  0.022  0.022  0.917
atom    9   Tr[ns(na)] =   5.43288
    eigenvalues: 
  0.846  0.929  0.941
    eigenvectors:
  0.340  0.000  0.660
  0.494  0.250  0.256
  0.166  0.750  0.084
    occupations:
  0.909  0.039  0.023
  0.039  0.891 -0.022
  0.023 -0.022  0.917
atom   10   Tr[ns(na)] =   5.43288
    eigenvalues: 
  0.846  0.929  0.941
    eigenvectors:
  0.340  0.000  0.660
  0.000  1.000  0.000
  0.660  0.000  0.340
    occupations:
  0.909  0.000 -0.045
  0.000  0.929  0.000
 -0.045  0.000  0.878
N of occupied +U levels =  56.2491749
 --- exit write_ns ---
 --- in v_hubbard ---
Hubbard energy   -0.0600
 -------

     total cpu time spent up to now is      201.5 secs

     total energy              =    -538.39301057 Ry
     Harris-Foulkes estimate   =    -538.39301093 Ry
     estimated scf accuracy    <       0.00000103 Ry

     iteration #  6     ecut=    30.00 Ry     beta=0.20
     Davidson diagonalization with overlap
     ethr =  1.36E-09,  avg # of iterations =  2.0
 --- enter write_ns ---
 LDA+U parameters:
U( 1)     =  0.00000000
alpha( 1) =  0.00000000
U( 2)     =  0.00000000
alpha( 2) =  0.00000000
U( 3)     =  0.00000000
alpha( 3) = -0.15000000
U( 4)     =  0.00000000
alpha( 4) =  0.00000000
atom    1   Tr[ns(na)] =   8.02024
    eigenvalues: 
  0.595  0.596  0.938  0.941  0.941
    eigenvectors:
  0.000  0.000  0.989  0.010  0.001
  0.553  0.102  0.003  0.178  0.164
  0.102  0.553  0.001  0.164  0.181
  0.172  0.173  0.004  0.535  0.115
  0.173  0.172  0.003  0.113  0.540
    occupations:
  0.938  0.000  0.000  0.000  0.000
  0.000  0.714  0.000 -0.061  0.153
  0.000  0.000  0.715  0.153  0.060
  0.000 -0.061  0.153  0.821  0.000
  0.000  0.153  0.060  0.000  0.822
atom    2   Tr[ns(na)] =   8.01972
    eigenvalues: 
  0.594  0.595  0.938  0.941  0.941
    eigenvectors:
  0.000  0.000  0.991  0.008  0.001
  0.421  0.233  0.002  0.316  0.027
  0.234  0.422  0.001  0.026  0.318
  0.024  0.321  0.000  0.006  0.649
  0.321  0.024  0.006  0.644  0.005
    occupations:
  0.938  0.000  0.000  0.000  0.000
  0.000  0.714  0.000  0.060  0.153
  0.000  0.000  0.714  0.153 -0.060
  0.000  0.060  0.153  0.822  0.000
  0.000  0.153 -0.060  0.000  0.821
atom    3   Tr[ns(na)] =   3.80121
    eigenvalues: 
  0.355  0.355  0.384  0.403  0.403
    eigenvectors:
  0.000  0.000  1.000  0.000  0.000
  0.228  0.691  0.000  0.064  0.016
  0.691  0.228  0.000  0.016  0.064
  0.060  0.021  0.000  0.193  0.727
  0.020  0.060  0.000  0.727  0.193
    occupations:
  0.384  0.000  0.000  0.000  0.000
  0.000  0.359  0.000  0.000  0.013
  0.000  0.000  0.359  0.013  0.000
  0.000  0.000  0.013  0.399  0.000
  0.000  0.013  0.000  0.000  0.399
atom    4   Tr[ns(na)] =   3.80126
    eigenvalues: 
  0.355  0.355  0.384  0.403  0.403
    eigenvectors:
  0.000  0.000  1.000  0.000  0.000
  0.180  0.741  0.000  0.059  0.019
  0.740  0.180  0.000  0.019  0.061
  0.064  0.016  0.000  0.231  0.689
  0.016  0.063  0.000  0.690  0.231
    occupations:
  0.384  0.000  0.000  0.000  0.000
  0.000  0.359  0.000  0.000  0.013
  0.000  0.000  0.359  0.013  0.000
  0.000  0.000  0.013  0.399  0.000
  0.000  0.013  0.000  0.000  0.399
atom    5   Tr[ns(na)] =   5.44217
    eigenvalues: 
  0.849  0.931  0.942
    eigenvectors:
  0.340  0.000  0.660
  0.496  0.250  0.254
  0.164  0.750  0.085
    occupations:
  0.910 -0.038  0.022
 -0.038  0.893  0.022
  0.022  0.022  0.918
atom    6   Tr[ns(na)] =   5.43291
    eigenvalues: 
  0.846  0.929  0.941
    eigenvectors:
  0.340  0.000  0.660
  0.495  0.249  0.256
  0.165  0.751  0.084
    occupations:
  0.909  0.039  0.022
  0.039  0.891 -0.022
  0.022 -0.022  0.917
atom    7   Tr[ns(na)] =   5.43291
    eigenvalues: 
  0.846  0.929  0.941
    eigenvectors:
  0.340  0.000  0.660
  0.000  1.000  0.000
  0.660  0.000  0.340
    occupations:
  0.909  0.000 -0.045
  0.000  0.929  0.000
 -0.045  0.000  0.878
atom    8   Tr[ns(na)] =   5.43327
    eigenvalues: 
  0.846  0.929  0.941
    eigenvectors:
  0.340  0.000  0.660
  0.496  0.250  0.255
  0.164  0.750  0.086
    occupations:
  0.909 -0.039  0.022
 -0.039  0.891  0.022
  0.022  0.022  0.917
atom    9   Tr[ns(na)] =   5.43283
    eigenvalues: 
  0.846  0.929  0.941
    eigenvectors:
  0.340  0.000  0.660
  0.494  0.250  0.256
  0.166  0.750  0.084
    occupations:
  0.909  0.039  0.023
  0.039  0.891 -0.022
  0.023 -0.022  0.916
atom   10   Tr[ns(na)] =   5.43283
    eigenvalues: 
  0.846  0.929  0.941
    eigenvectors:
  0.340  0.000  0.660
  0.000  1.000  0.000
  0.660  0.000  0.340
    occupations:
  0.909  0.000 -0.045
  0.000  0.929  0.000
 -0.045  0.000  0.878
N of occupied +U levels =  56.2493482
 --- exit write_ns ---
 --- in v_hubbard ---
Hubbard energy   -0.0600
 -------

     total cpu time spent up to now is      228.1 secs

     total energy              =    -538.39301063 Ry
     Harris-Foulkes estimate   =    -538.39301067 Ry
     estimated scf accuracy    <       0.00000015 Ry

     iteration #  7     ecut=    30.00 Ry     beta=0.20
     Davidson diagonalization with overlap
     ethr =  1.93E-10,  avg # of iterations =  1.8
 --- enter write_ns ---
 LDA+U parameters:
U( 1)     =  0.00000000
alpha( 1) =  0.00000000
U( 2)     =  0.00000000
alpha( 2) =  0.00000000
U( 3)     =  0.00000000
alpha( 3) = -0.15000000
U( 4)     =  0.00000000
alpha( 4) =  0.00000000
atom    1   Tr[ns(na)] =   8.02028
    eigenvalues: 
  0.595  0.596  0.938  0.941  0.941
    eigenvectors:
  0.000  0.000  0.990  0.009  0.001
  0.553  0.102  0.002  0.175  0.168
  0.102  0.553  0.001  0.167  0.177
  0.172  0.174  0.004  0.541  0.110
  0.173  0.172  0.002  0.108  0.545
    occupations:
  0.938  0.000  0.000  0.000  0.000
  0.000  0.714  0.000 -0.061  0.153
  0.000  0.000  0.715  0.153  0.060
  0.000 -0.061  0.153  0.821  0.000
  0.000  0.153  0.060  0.000  0.822
atom    2   Tr[ns(na)] =   8.01963
    eigenvalues: 
  0.594  0.595  0.938  0.941  0.941
    eigenvectors:
  0.000  0.000  0.992  0.007  0.000
  0.421  0.233  0.002  0.319  0.025
  0.234  0.421  0.001  0.024  0.320
  0.024  0.321  0.000  0.007  0.648
  0.321  0.024  0.005  0.643  0.007
    occupations:
  0.938  0.000  0.000  0.000  0.000
  0.000  0.714  0.000  0.060  0.153
  0.000  0.000  0.714  0.153 -0.060
  0.000  0.060  0.153  0.822  0.000
  0.000  0.153 -0.060  0.000  0.821
atom    3   Tr[ns(na)] =   3.80117
    eigenvalues: 
  0.355  0.355  0.384  0.403  0.403
    eigenvectors:
  0.000  0.000  1.000  0.000  0.000
  0.229  0.691  0.000  0.064  0.016
  0.691  0.228  0.000  0.016  0.064
  0.060  0.021  0.000  0.190  0.730
  0.021  0.060  0.000  0.730  0.190
    occupations:
  0.384  0.000  0.000  0.000  0.000
  0.000  0.359  0.000  0.000  0.013
  0.000  0.000  0.359  0.013  0.000
  0.000  0.000  0.013  0.399  0.000
  0.000  0.013  0.000  0.000  0.399
atom    4   Tr[ns(na)] =   3.80121
    eigenvalues: 
  0.355  0.355  0.384  0.403  0.403
    eigenvectors:
  0.000  0.000  1.000  0.000  0.000
  0.198  0.723  0.000  0.059  0.020
  0.722  0.199  0.000  0.019  0.060
  0.062  0.017  0.000  0.232  0.688
  0.018  0.061  0.000  0.689  0.232
    occupations:
  0.384  0.000  0.000  0.000  0.000
  0.000  0.359  0.000  0.000  0.013
  0.000  0.000  0.359  0.013  0.000
  0.000  0.000  0.013  0.399  0.000
  0.000  0.013  0.000  0.000  0.399
atom    5   Tr[ns(na)] =   5.44206
    eigenvalues: 
  0.848  0.931  0.942
    eigenvectors:
  0.340  0.000  0.660
  0.496  0.250  0.254
  0.164  0.750  0.085
    occupations:
  0.910 -0.038  0.022
 -0.038  0.893  0.022
  0.022  0.022  0.918
atom    6   Tr[ns(na)] =   5.43294
    eigenvalues: 
  0.846  0.929  0.941
    eigenvectors:
  0.340  0.000  0.660
  0.495  0.249  0.256
  0.165  0.751  0.084
    occupations:
  0.909  0.039  0.022
  0.039  0.891 -0.022
  0.022 -0.022  0.917
atom    7   Tr[ns(na)] =   5.43295
    eigenvalues: 
  0.846  0.929  0.941
    eigenvectors:
  0.340  0.000  0.660
  0.000  1.000  0.000
  0.660  0.000  0.340
    occupations:
  0.909  0.000 -0.045
  0.000  0.929  0.000
 -0.045  0.000  0.878
atom    8   Tr[ns(na)] =   5.43333
    eigenvalues: 
  0.846  0.929  0.941
    eigenvectors:
  0.340  0.000  0.660
  0.496  0.250  0.255
  0.164  0.750  0.086
    occupations:
  0.909 -0.039  0.022
 -0.039  0.891  0.022
  0.022  0.022  0.917
atom    9   Tr[ns(na)] =   5.43286
    eigenvalues: 
  0.846  0.929  0.941
    eigenvectors:
  0.340  0.000  0.660
  0.494  0.250  0.256
  0.166  0.750  0.084
    occupations:
  0.909  0.039  0.023
  0.039  0.891 -0.022
  0.023 -0.022  0.917
atom   10   Tr[ns(na)] =   5.43286
    eigenvalues: 
  0.846  0.929  0.941
    eigenvectors:
  0.340  0.000  0.660
  0.000  1.000  0.000
  0.660  0.000  0.340
    occupations:
  0.909  0.000 -0.045
  0.000  0.929  0.000
 -0.045  0.000  0.878
N of occupied +U levels =  56.2493036
 --- exit write_ns ---
 --- in v_hubbard ---
Hubbard energy   -0.0600
 -------

     total cpu time spent up to now is      255.8 secs

     total energy              =    -538.39301063 Ry
     Harris-Foulkes estimate   =    -538.39301064 Ry
     estimated scf accuracy    <       0.00000004 Ry

     iteration #  8     ecut=    30.00 Ry     beta=0.20
     Davidson diagonalization with overlap
     ethr =  4.84E-11,  avg # of iterations =  2.0
 --- enter write_ns ---
 LDA+U parameters:
U( 1)     =  0.00000000
alpha( 1) =  0.00000000
U( 2)     =  0.00000000
alpha( 2) =  0.00000000
U( 3)     =  0.00000000
alpha( 3) = -0.15000000
U( 4)     =  0.00000000
alpha( 4) =  0.00000000
atom    1   Tr[ns(na)] =   8.02027
    eigenvalues: 
  0.595  0.596  0.938  0.941  0.941
    eigenvectors:
  0.000  0.000  0.991  0.009  0.001
  0.553  0.102  0.002  0.172  0.170
  0.102  0.553  0.001  0.170  0.175
  0.172  0.174  0.004  0.545  0.106
  0.173  0.172  0.002  0.104  0.549
    occupations:
  0.938  0.000  0.000  0.000  0.000
  0.000  0.714  0.000 -0.061  0.153
  0.000  0.000  0.715  0.153  0.060
  0.000 -0.061  0.153  0.821  0.000
  0.000  0.153  0.060  0.000  0.822
atom    2   Tr[ns(na)] =   8.01965
    eigenvalues: 
  0.594  0.595  0.938  0.941  0.941
    eigenvectors:
  0.000  0.000  0.993  0.007  0.000
  0.421  0.233  0.002  0.320  0.023
  0.234  0.421  0.001  0.023  0.321
  0.024  0.321  0.000  0.008  0.647
  0.321  0.024  0.005  0.642  0.008
    occupations:
  0.938  0.000  0.000  0.000  0.000
  0.000  0.714  0.000  0.060  0.153
  0.000  0.000  0.714  0.153 -0.060
  0.000  0.060  0.153  0.822  0.000
  0.000  0.153 -0.060  0.000  0.821
atom    3   Tr[ns(na)] =   3.80111
    eigenvalues: 
  0.355  0.355  0.384  0.403  0.403
    eigenvectors:
  0.000  0.000  1.000  0.000  0.000
  0.229  0.691  0.000  0.064  0.016
  0.691  0.229  0.000  0.016  0.064
  0.060  0.021  0.000  0.189  0.731
  0.021  0.060  0.000  0.731  0.189
    occupations:
  0.384  0.000  0.000  0.000  0.000
  0.000  0.359  0.000  0.000  0.013
  0.000  0.000  0.359  0.013  0.000
  0.000  0.000  0.013  0.399  0.000
  0.000  0.013  0.000  0.000  0.399
atom    4   Tr[ns(na)] =   3.80115
    eigenvalues: 
  0.355  0.355  0.384  0.403  0.403
    eigenvectors:
  0.000  0.000  1.000  0.000  0.000
  0.201  0.720  0.000  0.059  0.020
  0.719  0.201  0.000  0.019  0.060
  0.062  0.018  0.000  0.232  0.688
  0.018  0.061  0.000  0.689  0.232
    occupations:
  0.384  0.000  0.000  0.000  0.000
  0.000  0.359  0.000  0.000  0.013
  0.000  0.000  0.359  0.013  0.000
  0.000  0.000  0.013  0.399  0.000
  0.000  0.013  0.000  0.000  0.399
atom    5   Tr[ns(na)] =   5.44208
    eigenvalues: 
  0.848  0.931  0.942
    eigenvectors:
  0.340  0.000  0.660
  0.496  0.250  0.254
  0.164  0.750  0.085
    occupations:
  0.910 -0.038  0.022
 -0.038  0.893  0.022
  0.022  0.022  0.918
atom    6   Tr[ns(na)] =   5.43296
    eigenvalues: 
  0.846  0.929  0.941
    eigenvectors:
  0.340  0.000  0.660
  0.495  0.249  0.256
  0.165  0.751  0.084
    occupations:
  0.909  0.039  0.022
  0.039  0.891 -0.022
  0.022 -0.022  0.917
atom    7   Tr[ns(na)] =   5.43296
    eigenvalues: 
  0.846  0.929  0.941
    eigenvectors:
  0.340  0.000  0.660
  0.000  1.000  0.000
  0.660  0.000  0.340
    occupations:
  0.909  0.000 -0.045
  0.000  0.929  0.000
 -0.045  0.000  0.878
atom    8   Tr[ns(na)] =   5.43334
    eigenvalues: 
  0.846  0.929  0.941
    eigenvectors:
  0.340  0.000  0.660
  0.496  0.250  0.255
  0.164  0.750  0.086
    occupations:
  0.909 -0.039  0.022
 -0.039  0.891  0.022
  0.022  0.022  0.917
atom    9   Tr[ns(na)] =   5.43288
    eigenvalues: 
  0.846  0.929  0.941
    eigenvectors:
  0.340  0.000  0.660
  0.494  0.250  0.256
  0.166  0.750  0.084
    occupations:
  0.909  0.039  0.023
  0.039  0.891 -0.022
  0.023 -0.022  0.917
atom   10   Tr[ns(na)] =   5.43288
    eigenvalues: 
  0.846  0.929  0.941
    eigenvectors:
  0.340  0.000  0.660
  0.000  1.000  0.000
  0.660  0.000  0.340
    occupations:
  0.909  0.000 -0.045
  0.000  0.929  0.000
 -0.045  0.000  0.878
N of occupied +U levels =  56.2492678
 --- exit write_ns ---
 --- in v_hubbard ---
Hubbard energy   -0.0600
 -------

     total cpu time spent up to now is      289.3 secs

     End of self-consistent calculation

          k = 0.0000 0.0000 0.0000 (  2175 PWs)   bands (ev):

   -19.7954 -19.6225  -6.5255  -5.8123  -5.8073  -5.7983  -5.7647  -5.4557
    -3.7520  -3.2610  -3.1871  -3.1847  -3.0217  -3.0207   5.1730   6.9228
     6.9372   7.5028   7.5192   7.7049   7.8139   7.8212   7.8788   9.2932
     9.6063   9.6211   9.8702   9.9188   9.9257  10.4648  10.4688  10.6633
    10.6635  10.6785  10.8107  11.5076  11.5098  12.1783  12.2949  12.2976
    14.7698  14.7737  15.4313  15.4336  16.1988  16.7920

     occupation numbers 
     0.0313   0.0313   0.0313   0.0313   0.0313   0.0313   0.0313   0.0313
     0.0313   0.0313   0.0313   0.0313   0.0313   0.0313   0.0313   0.0313
     0.0313   0.0313   0.0313   0.0313   0.0313   0.0313   0.0313   0.0313
     0.0313   0.0313   0.0312   0.0312   0.0312   0.0312   0.0312   0.0312
     0.0312   0.0312   0.0312   0.0309   0.0309   0.0150   0.0101   0.0100
     0.0000   0.0000   0.0000   0.0000   0.0000   0.0000

          k =-0.2471-0.1427 0.1027 (  2181 PWs)   bands (ev):

   -19.7681 -19.6458  -6.7065  -6.2663  -5.9069  -5.8188  -5.5817  -5.4437
    -3.5704  -3.3787  -2.9177  -2.8942  -2.8313  -2.7503   5.5399   6.8720
     7.0267   7.0410   7.3334   7.5031   7.5713   7.8195   7.8591   8.6126
     8.7134   9.3428   9.6580   9.8045   9.8499  10.0316  10.3773  10.3872
    11.0355  11.0673  11.1492  11.8800  11.9317  11.9932  12.3539  12.4144
    14.3141  14.3249  15.8195  16.0763  16.9757  17.2716

     occupation numbers 
     0.0625   0.0625   0.0625   0.0625   0.0625   0.0625   0.0625   0.0625
     0.0625   0.0625   0.0625   0.0625   0.0625   0.0625   0.0625   0.0625
     0.0625   0.0625   0.0625   0.0625   0.0625   0.0625   0.0625   0.0625
     0.0625   0.0625   0.0625   0.0625   0.0625   0.0625   0.0625   0.0625
     0.0625   0.0625   0.0625   0.0523   0.0493   0.0451   0.0159   0.0120
     0.0000   0.0000   0.0000   0.0000   0.0000   0.0000

          k = 0.4942 0.2853-0.2053 (  2202 PWs)   bands (ev):

   -19.7059 -19.7039  -6.7136  -6.6895  -5.9372  -5.9206  -5.5018  -5.4739
    -3.3675  -3.3663  -2.7773  -2.7713  -2.5013  -2.4957   6.0656   6.0981
     7.2183   7.2313   7.2833   7.3088   7.6380   7.6798   7.9812   8.0024
     8.1960   8.2127   9.5325   9.5400   9.8730   9.8878  10.2798  10.2904
    11.4735  11.4754  11.5521  11.5563  11.7176  11.7205  13.2947  13.3214
    13.3817  13.4128  16.8370  16.8457  17.1363  17.1423

     occupation numbers 
     0.0313   0.0313   0.0313   0.0313   0.0313   0.0313   0.0313   0.0313
     0.0313   0.0313   0.0313   0.0313   0.0313   0.0313   0.0313   0.0313
     0.0313   0.0313   0.0313   0.0313   0.0313   0.0313   0.0313   0.0313
     0.0313   0.0313   0.0313   0.0313   0.0312   0.0312   0.0312   0.0312
     0.0310   0.0310   0.0307   0.0307   0.0293   0.0293   0.0000   0.0000
     0.0000   0.0000   0.0000   0.0000   0.0000   0.0000

          k =-0.2471 0.1427 0.2053 (  2195 PWs)   bands (ev):

   -19.7628 -19.6480  -6.8391  -6.2097  -6.0481  -5.7858  -5.6121  -5.4289
    -3.3955  -3.2543  -3.0877  -2.8782  -2.8001  -2.5521   5.5826   6.8234
     6.9352   7.1236   7.2382   7.4728   7.4924   7.8667   7.8689   8.6832
     8.8939   8.9049   9.3024   9.7856   9.9857  10.1003  10.2076  10.3066
    10.6851  11.3902  11.4157  11.5039  11.9305  11.9980  12.1723  12.7322
    13.6365  14.7884  15.9960  16.1987  17.0423  17.5402

     occupation numbers 
     0.0625   0.0625   0.0625   0.0625   0.0625   0.0625   0.0625   0.0625
     0.0625   0.0625   0.0625   0.0625   0.0625   0.0625   0.0625   0.0625
     0.0625   0.0625   0.0625   0.0625   0.0625   0.0625   0.0625   0.0625
     0.0625   0.0625   0.0625   0.0625   0.0625   0.0625   0.0625   0.0625
     0.0625   0.0623   0.0622   0.0618   0.0494   0.0448   0.0305   0.0015
     0.0000   0.0000   0.0000   0.0000   0.0000   0.0000

          k = 0.4942 0.5706-0.1027 (  2198 PWs)   bands (ev):

   -19.7232 -19.6831  -6.9431  -6.6235  -6.1157  -5.8499  -5.4676  -5.3536
    -3.2915  -3.2434  -2.8644  -2.6980  -2.5169  -2.3762   5.9197   6.2588
     6.8942   7.0403   7.2294   7.3535   7.5506   7.7992   7.9467   8.0820
     8.3547   8.9142   9.1563   9.3492   9.6699   9.8152   9.9698  10.3698
    11.1023  11.5402  11.6298  11.7024  11.8331  11.8522  12.3376  12.7407
    13.4216  14.3645  16.9101  17.1205  17.3165  18.0203

     occupation numbers 
     0.0625   0.0625   0.0625   0.0625   0.0625   0.0625   0.0625   0.0625
     0.0625   0.0625   0.0625   0.0625   0.0625   0.0625   0.0625   0.0625
     0.0625   0.0625   0.0625   0.0625   0.0625   0.0625   0.0625   0.0625
     0.0625   0.0625   0.0625   0.0625   0.0625   0.0625   0.0625   0.0625
     0.0625   0.0615   0.0605   0.0591   0.0546   0.0537   0.0171   0.0014
     0.0000   0.0000   0.0000   0.0000   0.0000   0.0000

          k = 0.2471 0.4280 0.0000 (  2203 PWs)   bands (ev):

   -19.7337 -19.6758  -6.8224  -6.6247  -6.0088  -5.9616  -5.4138  -5.3236
    -3.4984  -3.2854  -2.7920  -2.6952  -2.5538  -2.5473   5.8713   6.3265
     7.0755   7.1350   7.2397   7.3244   7.4489   7.7342   7.8171   8.1995
     8.4393   8.9244   9.4059   9.4674   9.7826   9.7967  10.0659  10.3691
    11.4031  11.4124  11.4411  11.6619  11.6726  11.9483  12.2830  13.3249
    13.3965  14.1544  16.4409  16.9993  17.4269  17.9307

     occupation numbers 
     0.0625   0.0625   0.0625   0.0625   0.0625   0.0625   0.0625   0.0625
     0.0625   0.0625   0.0625   0.0625   0.0625   0.0625   0.0625   0.0625
     0.0625   0.0625   0.0625   0.0625   0.0625   0.0625   0.0625   0.0625
     0.0625   0.0625   0.0625   0.0625   0.0625   0.0625   0.0625   0.0625
     0.0622   0.0622   0.0621   0.0599   0.0597   0.0482   0.0212   0.0000
     0.0000   0.0000   0.0000   0.0000   0.0000   0.0000

          k = 0.4942-0.2853-0.4107 (  2202 PWs)   bands (ev):

   -19.7296 -19.6732  -7.1545  -6.4418  -6.2325  -5.9113  -5.4881  -5.2580
    -3.1806  -3.1197  -3.0310  -2.6443  -2.4722  -2.2142   5.8204   6.2960
     6.4646   6.9301   7.1547   7.2645   7.8984   7.9232   8.1535   8.2902
     8.5682   8.6092   8.6171   9.3935   9.6656  10.0335  10.0789  10.4493
    10.6512  11.2968  11.5651  11.7554  11.8616  11.9666  12.0682  12.4562
    13.3199  14.8003  17.0469  17.2701  17.5276  17.6122

     occupation numbers 
     0.0313   0.0313   0.0313   0.0313   0.0313   0.0313   0.0313   0.0313
     0.0313   0.0313   0.0313   0.0313   0.0313   0.0313   0.0313   0.0313
     0.0313   0.0313   0.0313   0.0313   0.0313   0.0313   0.0313   0.0313
     0.0313   0.0313   0.0313   0.0313   0.0313   0.0312   0.0312   0.0312
     0.0312   0.0312   0.0307   0.0288   0.0266   0.0235   0.0197   0.0048
     0.0000   0.0000   0.0000   0.0000   0.0000   0.0000

          k = 0.0000 0.0000 0.3080 (  2187 PWs)   bands (ev):

   -19.7678 -19.6456  -6.5944  -5.9599  -5.9066  -5.8878  -5.8196  -5.7916
    -3.1870  -3.0936  -3.0900  -2.9599  -2.8873  -2.8840   5.5928   7.0173
     7.0338   7.1330   7.4268   7.4425   7.5156   7.8446   7.8519   8.8576
     8.8662   9.4320   9.4387   9.6560   9.6714   9.8774  10.1298  10.1437
    11.1517  11.1528  11.2162  11.8930  11.8941  12.0057  12.3350  12.3378
    14.2748  14.2787  15.9132  15.9160  16.8816  17.4860

     occupation numbers 
     0.0625   0.0625   0.0625   0.0625   0.0625   0.0625   0.0625   0.0625
     0.0625   0.0625   0.0625   0.0625   0.0625   0.0625   0.0625   0.0625
     0.0625   0.0625   0.0625   0.0625   0.0625   0.0625   0.0625   0.0625
     0.0625   0.0625   0.0625   0.0625   0.0625   0.0625   0.0625   0.0625
     0.0625   0.0625   0.0625   0.0516   0.0515   0.0442   0.0173   0.0171
     0.0000   0.0000   0.0000   0.0000   0.0000   0.0000

          k = 0.7412 0.4280 0.0000 (  2204 PWs)   bands (ev):

   -19.7332 -19.6758  -6.7148  -6.5743  -6.1241  -5.8066  -5.6455  -5.5066
    -3.1555  -3.0779  -3.0362  -2.6662  -2.6444  -2.5699   5.9283   6.4971
     7.0955   7.1999   7.2286   7.3392   7.4524   7.6629   8.0054   8.1424
     8.4523   8.8488   9.4740   9.4990   9.6123   9.6831   9.8590  10.2171
    11.3968  11.4118  11.5092  11.6914  11.7171  11.8837  12.2943  13.2464
    13.3093  14.1827  16.6955  16.7264  17.5933  17.7988

     occupation numbers 
     0.0625   0.0625   0.0625   0.0625   0.0625   0.0625   0.0625   0.0625
     0.0625   0.0625   0.0625   0.0625   0.0625   0.0625   0.0625   0.0625
     0.0625   0.0625   0.0625   0.0625   0.0625   0.0625   0.0625   0.0625
     0.0625   0.0625   0.0625   0.0625   0.0625   0.0625   0.0625   0.0625
     0.0623   0.0622   0.0618   0.0593   0.0587   0.0521   0.0203   0.0000
     0.0000   0.0000   0.0000   0.0000   0.0000   0.0000

          k = 0.4942 0.2853 0.1027 (  2211 PWs)   bands (ev):

   -19.7245 -19.6838  -6.9459  -6.5234  -6.2989  -5.6691  -5.6021  -5.3115
    -3.3039  -3.1566  -3.0166  -2.5922  -2.5488  -2.3647   5.9304   6.2495
     6.8291   7.0195   7.2173   7.2825   7.5796   7.8776   7.9805   8.0452
     8.4017   9.0361   9.1708   9.4033   9.5464   9.6837  10.0248  10.3827
    11.1151  11.5773  11.7044  11.7101  11.7692  11.7891  12.2877  12.7577
    13.4730  14.3431  16.8894  16.9390  17.5874  17.9338

     occupation numbers 
     0.0625   0.0625   0.0625   0.0625   0.0625   0.0625   0.0625   0.0625
     0.0625   0.0625   0.0625   0.0625   0.0625   0.0625   0.0625   0.0625
     0.0625   0.0625   0.0625   0.0625   0.0625   0.0625   0.0625   0.0625
     0.0625   0.0625   0.0625   0.0625   0.0625   0.0625   0.0625   0.0625
     0.0625   0.0612   0.0590   0.0589   0.0571   0.0564   0.0208   0.0012
     0.0000   0.0000   0.0000   0.0000   0.0000   0.0000

          k = 0.7412-0.4280-0.3080 (  2210 PWs)   bands (ev):

   -19.7230 -19.6829  -6.8958  -6.4284  -6.2811  -5.7693  -5.7075  -5.4558
    -3.0599  -3.0383  -2.9526  -2.7197  -2.6099  -2.4192   6.0093   6.3678
     6.9418   7.0178   7.2744   7.2782   7.5926   7.8903   8.0346   8.0719
     8.3663   9.0060   9.0231   9.5044   9.5487   9.5844   9.6656  10.2298
    11.1722  11.5960  11.6913  11.6989  11.8118  11.8540  12.2473  12.7059
    13.4151  14.3157  17.0659  17.0724  17.5547  17.9091

     occupation numbers 
     0.0625   0.0625   0.0625   0.0625   0.0625   0.0625   0.0625   0.0625
     0.0625   0.0625   0.0625   0.0625   0.0625   0.0625   0.0625   0.0625
     0.0625   0.0625   0.0625   0.0625   0.0625   0.0625   0.0625   0.0625
     0.0625   0.0625   0.0625   0.0625   0.0625   0.0625   0.0625   0.0625
     0.0625   0.0610   0.0593   0.0591   0.0555   0.0536   0.0241   0.0019
     0.0000   0.0000   0.0000   0.0000   0.0000   0.0000

          k = 0.4942-0.5706-0.2053 (  2206 PWs)   bands (ev):

   -19.7028 -19.7023  -6.8715  -6.8541  -6.0246  -5.9944  -5.4003  -5.3791
    -3.1440  -3.1435  -2.8024  -2.7972  -2.3751  -2.3717   6.0772   6.1080
     7.0078   7.0247   7.1499   7.1564   7.4248   7.4443   8.1910   8.2385
     8.7855   8.8059   9.0689   9.0847   9.5429   9.5574  10.1055  10.1159
    11.3864  11.3871  11.5862  11.5872  11.8527  11.8579  12.3201  12.3220
    14.0031  14.0130  17.4324  17.4354  17.8725  17.8737

     occupation numbers 
     0.0625   0.0625   0.0625   0.0625   0.0625   0.0625   0.0625   0.0625
     0.0625   0.0625   0.0625   0.0625   0.0625   0.0625   0.0625   0.0625
     0.0625   0.0625   0.0625   0.0625   0.0625   0.0625   0.0625   0.0625
     0.0625   0.0625   0.0625   0.0625   0.0625   0.0625   0.0625   0.0625
     0.0623   0.0623   0.0611   0.0611   0.0537   0.0534   0.0183   0.0182
     0.0000   0.0000   0.0000   0.0000   0.0000   0.0000

          k = 0.0000 0.0000-0.6160 (  2186 PWs)   bands (ev):

   -19.7055 -19.7035  -6.5005  -6.4735  -5.9200  -5.9187  -5.9161  -5.8759
    -2.8780  -2.8768  -2.8757  -2.8688  -2.7026  -2.6974   6.2859   6.3210
     7.2084   7.2360   7.2473   7.2533   7.8394   7.8773   8.0966   8.0994
     8.1315   8.1325   9.6398   9.6414   9.6611   9.6627   9.7094   9.7270
    11.6030  11.6072  11.6498  11.6534  11.6564  11.6573  13.2346  13.2391
    13.2640  13.2671  17.1192  17.1223  17.1238  17.1251

     occupation numbers 
     0.0313   0.0313   0.0313   0.0313   0.0313   0.0313   0.0313   0.0313
     0.0313   0.0313   0.0313   0.0313   0.0313   0.0313   0.0313   0.0313
     0.0313   0.0313   0.0313   0.0313   0.0313   0.0313   0.0313   0.0313
     0.0313   0.0313   0.0313   0.0313   0.0313   0.0313   0.0313   0.0313
     0.0304   0.0304   0.0301   0.0300   0.0300   0.0300   0.0000   0.0000
     0.0000   0.0000   0.0000   0.0000   0.0000   0.0000

          k =-0.2471 0.1427-0.1027 (  2181 PWs)   bands (ev):

   -19.7681 -19.6458  -6.7067  -6.2665  -5.9097  -5.8144  -5.5801  -5.4472
    -3.5685  -3.3796  -2.9170  -2.8950  -2.8324  -2.7493   5.5387   6.8686
     7.0252   7.0448   7.3362   7.5109   7.5634   7.8143   7.8636   8.6167
     8.7065   9.3476   9.6678   9.7900   9.8541  10.0282  10.3740  10.3922
    11.0359  11.0664  11.1498  11.8806  11.9317  11.9935  12.3562  12.4120
    14.3173  14.3218  15.8211  16.0738  16.9749  17.2699

     occupation numbers 
     0.0625   0.0625   0.0625   0.0625   0.0625   0.0625   0.0625   0.0625
     0.0625   0.0625   0.0625   0.0625   0.0625   0.0625   0.0625   0.0625
     0.0625   0.0625   0.0625   0.0625   0.0625   0.0625   0.0625   0.0625
     0.0625   0.0625   0.0625   0.0625   0.0625   0.0625   0.0625   0.0625
     0.0625   0.0625   0.0625   0.0523   0.0493   0.0451   0.0158   0.0122
     0.0000   0.0000   0.0000   0.0000   0.0000   0.0000

          k = 0.0000 0.2853 0.1027 (  2181 PWs)   bands (ev):

   -19.7681 -19.6458  -6.7065  -6.2663  -5.9074  -5.8184  -5.5813  -5.4441
    -3.5704  -3.3787  -2.9176  -2.8944  -2.8313  -2.7503   5.5399   6.8720
     7.0268   7.0408   7.3336   7.5035   7.5711   7.8185   7.8597   8.6123
     8.7138   9.3429   9.6576   9.8046   9.8501  10.0315  10.3759  10.3887
    11.0355  11.0672  11.1492  11.8800  11.9317  11.9932  12.3539  12.4144
    14.3141  14.3248  15.8195  16.0762  16.9756  17.2716

     occupation numbers 
     0.0625   0.0625   0.0625   0.0625   0.0625   0.0625   0.0625   0.0625
     0.0625   0.0625   0.0625   0.0625   0.0625   0.0625   0.0625   0.0625
     0.0625   0.0625   0.0625   0.0625   0.0625   0.0625   0.0625   0.0625
     0.0625   0.0625   0.0625   0.0625   0.0625   0.0625   0.0625   0.0625
     0.0625   0.0625   0.0625   0.0523   0.0493   0.0451   0.0159   0.0120
     0.0000   0.0000   0.0000   0.0000   0.0000   0.0000

          k = 0.4942-0.2853 0.2053 (  2202 PWs)   bands (ev):

   -19.7060 -19.7039  -6.7143  -6.6893  -5.9383  -5.9184  -5.5002  -5.4766
    -3.3676  -3.3648  -2.7769  -2.7726  -2.5010  -2.4954   6.0617   6.0985
     7.2093   7.2383   7.2837   7.3051   7.6546   7.6798   7.9678   8.0030
     8.1918   8.2216   9.5395   9.5445   9.8570   9.8860  10.2807  10.2957
    11.4729  11.4748  11.5521  11.5558  11.7179  11.7226  13.2958  13.3245
    13.3803  13.4102  16.8394  16.8443  17.1349  17.1390

     occupation numbers 
     0.0313   0.0313   0.0313   0.0313   0.0313   0.0313   0.0313   0.0313
     0.0313   0.0313   0.0313   0.0313   0.0313   0.0313   0.0313   0.0313
     0.0313   0.0313   0.0313   0.0313   0.0313   0.0313   0.0313   0.0313
     0.0313   0.0313   0.0313   0.0313   0.0312   0.0312   0.0312   0.0312
     0.0310   0.0310   0.0307   0.0307   0.0293   0.0293   0.0000   0.0000
     0.0000   0.0000   0.0000   0.0000   0.0000   0.0000

          k = 0.0000-0.5706-0.2053 (  2202 PWs)   bands (ev):

   -19.7059 -19.7039  -6.7145  -6.6885  -5.9394  -5.9185  -5.4990  -5.4766
    -3.3702  -3.3636  -2.7757  -2.7729  -2.5016  -2.4954   6.0657   6.0981
     7.2091   7.2418   7.2884   7.3027   7.6493   7.6682   7.9737   8.0100
     8.1849   8.2240   9.5302   9.5419   9.8734   9.8875  10.2794  10.2909
    11.4734  11.4755  11.5523  11.5561  11.7163  11.7218  13.2923  13.3240
    13.3839  13.4105  16.8397  16.8430  17.1374  17.1411

     occupation numbers 
     0.0313   0.0313   0.0313   0.0313   0.0313   0.0313   0.0313   0.0313
     0.0313   0.0313   0.0313   0.0313   0.0313   0.0313   0.0313   0.0313
     0.0313   0.0313   0.0313   0.0313   0.0313   0.0313   0.0313   0.0313
     0.0313   0.0313   0.0313   0.0313   0.0312   0.0312   0.0312   0.0312
     0.0310   0.0310   0.0307   0.0307   0.0294   0.0293   0.0000   0.0000
     0.0000   0.0000   0.0000   0.0000   0.0000   0.0000

          k =-0.2471-0.1427-0.2053 (  2195 PWs)   bands (ev):

   -19.7639 -19.6488  -6.8272  -6.2047  -6.0362  -5.8095  -5.6333  -5.4131
    -3.3950  -3.2542  -3.0873  -2.8748  -2.7980  -2.5495   5.5672   6.8500
     6.9243   7.1050   7.2414   7.4673   7.4837   7.8574   7.8794   8.6809
     8.9110   8.9158   9.2892   9.8000   9.9892  10.0966  10.1974  10.2953
    10.6871  11.3942  11.4198  11.5102  11.9304  11.9967  12.1705  12.7372
    13.6374  14.7855  15.9967  16.1975  17.0386  17.5390

     occupation numbers 
     0.0625   0.0625   0.0625   0.0625   0.0625   0.0625   0.0625   0.0625
     0.0625   0.0625   0.0625   0.0625   0.0625   0.0625   0.0625   0.0625
     0.0625   0.0625   0.0625   0.0625   0.0625   0.0625   0.0625   0.0625
     0.0625   0.0625   0.0625   0.0625   0.0625   0.0625   0.0625   0.0625
     0.0625   0.0623   0.0622   0.0618   0.0494   0.0449   0.0306   0.0015
     0.0000   0.0000   0.0000   0.0000   0.0000   0.0000

          k = 0.0000-0.2853 0.2053 (  2195 PWs)   bands (ev):

   -19.7639 -19.6488  -6.8272  -6.2046  -6.0364  -5.8095  -5.6333  -5.4131
    -3.3950  -3.2542  -3.0873  -2.8748  -2.7980  -2.5495   5.5672   6.8500
     6.9242   7.1050   7.2413   7.4706   7.4805   7.8578   7.8791   8.6811
     8.9079   8.9188   9.2892   9.8000   9.9892  10.0966  10.1974  10.2953
    10.6871  11.3942  11.4198  11.5102  11.9304  11.9967  12.1705  12.7372
    13.6374  14.7855  15.9967  16.1975  17.0386  17.5391

     occupation numbers 
     0.0625   0.0625   0.0625   0.0625   0.0625   0.0625   0.0625   0.0625
     0.0625   0.0625   0.0625   0.0625   0.0625   0.0625   0.0625   0.0625
     0.0625   0.0625   0.0625   0.0625   0.0625   0.0625   0.0625   0.0625
     0.0625   0.0625   0.0625   0.0625   0.0625   0.0625   0.0625   0.0625
     0.0625   0.0623   0.0622   0.0618   0.0494   0.0449   0.0306   0.0015
     0.0000   0.0000   0.0000   0.0000   0.0000   0.0000

          k = 0.4942-0.5706 0.1027 (  2198 PWs)   bands (ev):

   -19.7245 -19.6838  -6.9301  -6.6250  -6.1036  -5.8745  -5.4837  -5.3360
    -3.2909  -3.2428  -2.8669  -2.6930  -2.5163  -2.3717   5.8982   6.2819
     6.8685   7.0309   7.2312   7.3315   7.5628   7.8064   7.9282   8.1047
     8.3609   8.9145   9.1691   9.3571   9.6586   9.8237   9.9724  10.3623
    11.1003  11.5442  11.6302  11.6994  11.8341  11.8560  12.3352  12.7400
    13.4276  14.3613  16.9120  17.1149  17.3162  18.0197

     occupation numbers 
     0.0625   0.0625   0.0625   0.0625   0.0625   0.0625   0.0625   0.0625
     0.0625   0.0625   0.0625   0.0625   0.0625   0.0625   0.0625   0.0625
     0.0625   0.0625   0.0625   0.0625   0.0625   0.0625   0.0625   0.0625
     0.0625   0.0625   0.0625   0.0625   0.0625   0.0625   0.0625   0.0625
     0.0625   0.0615   0.0605   0.0591   0.0546   0.0535   0.0172   0.0014
     0.0000   0.0000   0.0000   0.0000   0.0000   0.0000

          k =-0.7412 0.1427-0.1027 (  2198 PWs)   bands (ev):

   -19.7245 -19.6838  -6.9296  -6.6260  -6.1025  -5.8755  -5.4828  -5.3368
    -3.2901  -3.2429  -2.8667  -2.6940  -2.5157  -2.3721   5.8995   6.2800
     6.8717   7.0306   7.2250   7.3349   7.5623   7.8046   7.9481   8.0815
     8.3676   8.9084   9.1738   9.3585   9.6601   9.8226   9.9727  10.3609
    11.1011  11.5431  11.6294  11.6998  11.8335  11.8571  12.3356  12.7403
    13.4276  14.3615  16.9101  17.1177  17.3156  18.0197

     occupation numbers 
     0.0625   0.0625   0.0625   0.0625   0.0625   0.0625   0.0625   0.0625
     0.0625   0.0625   0.0625   0.0625   0.0625   0.0625   0.0625   0.0625
     0.0625   0.0625   0.0625   0.0625   0.0625   0.0625   0.0625   0.0625
     0.0625   0.0625   0.0625   0.0625   0.0625   0.0625   0.0625   0.0625
     0.0625   0.0615   0.0605   0.0591   0.0546   0.0535   0.0172   0.0014
     0.0000   0.0000   0.0000   0.0000   0.0000   0.0000

          k = 0.2471-0.7133-0.1027 (  2198 PWs)   bands (ev):

   -19.7245 -19.6838  -6.9291  -6.6267  -6.1011  -5.8767  -5.4839  -5.3353
    -3.2903  -3.2431  -2.8661  -2.6953  -2.5156  -2.3717   5.9007   6.2802
     6.8747   7.0269   7.2225   7.3380   7.5632   7.8092   7.9433   8.0784
     8.3692   8.9093   9.1721   9.3545   9.6675   9.8182   9.9752  10.3600
    11.1010  11.5417  11.6302  11.7031  11.8314  11.8560  12.3357  12.7402
    13.4276  14.3615  16.9080  17.1209  17.3158  18.0210

     occupation numbers 
     0.0625   0.0625   0.0625   0.0625   0.0625   0.0625   0.0625   0.0625
     0.0625   0.0625   0.0625   0.0625   0.0625   0.0625   0.0625   0.0625
     0.0625   0.0625   0.0625   0.0625   0.0625   0.0625   0.0625   0.0625
     0.0625   0.0625   0.0625   0.0625   0.0625   0.0625   0.0625   0.0625
     0.0625   0.0615   0.0605   0.0590   0.0547   0.0535   0.0172   0.0014
     0.0000   0.0000   0.0000   0.0000   0.0000   0.0000

          k =-0.7412-0.1427 0.1027 (  2198 PWs)   bands (ev):

   -19.7245 -19.6838  -6.9297  -6.6256  -6.1024  -5.8757  -5.4848  -5.3345
    -3.2910  -3.2430  -2.8663  -2.6943  -2.5163  -2.3713   5.8994   6.2820
     6.8713   7.0272   7.2287   7.3346   7.5638   7.8107   7.9239   8.1015
     8.3624   8.9154   9.1675   9.3533   9.6657   9.8194   9.9749  10.3614
    11.1002  11.5428  11.6309  11.7028  11.8319  11.8548  12.3354  12.7399
    13.4276  14.3613  16.9099  17.1181  17.3164  18.0209

     occupation numbers 
     0.0625   0.0625   0.0625   0.0625   0.0625   0.0625   0.0625   0.0625
     0.0625   0.0625   0.0625   0.0625   0.0625   0.0625   0.0625   0.0625
     0.0625   0.0625   0.0625   0.0625   0.0625   0.0625   0.0625   0.0625
     0.0625   0.0625   0.0625   0.0625   0.0625   0.0625   0.0625   0.0625
     0.0625   0.0615   0.0605   0.0590   0.0547   0.0536   0.0172   0.0014
     0.0000   0.0000   0.0000   0.0000   0.0000   0.0000

          k = 0.2471 0.7133 0.1027 (  2198 PWs)   bands (ev):

   -19.7232 -19.6831  -6.9436  -6.6225  -6.1168  -5.8491  -5.4686  -5.3528
    -3.2923  -3.2433  -2.8646  -2.6970  -2.5176  -2.3758   5.9184   6.2607
     6.8910   7.0405   7.2358   7.3502   7.5511   7.8010   7.9259   8.1066
     8.3477   8.9205   9.1513   9.3476   9.6681   9.8167   9.9695  10.3711
    11.1015  11.5414  11.6306  11.7021  11.8337  11.8511  12.3372  12.7404
    13.4215  14.3643  16.9120  17.1177  17.3170  18.0204

     occupation numbers 
     0.0625   0.0625   0.0625   0.0625   0.0625   0.0625   0.0625   0.0625
     0.0625   0.0625   0.0625   0.0625   0.0625   0.0625   0.0625   0.0625
     0.0625   0.0625   0.0625   0.0625   0.0625   0.0625   0.0625   0.0625
     0.0625   0.0625   0.0625   0.0625   0.0625   0.0625   0.0625   0.0625
     0.0625   0.0615   0.0605   0.0591   0.0546   0.0538   0.0171   0.0014
     0.0000   0.0000   0.0000   0.0000   0.0000   0.0000

          k = 0.2471-0.4280 0.0000 (  2203 PWs)   bands (ev):

   -19.7335 -19.6760  -6.8293  -6.6105  -6.0375  -5.9463  -5.4007  -5.3307
    -3.4961  -3.2854  -2.7889  -2.7015  -2.5568  -2.5433   5.8868   6.3152
     7.0837   7.1323   7.2242   7.3186   7.4627   7.7212   7.8261   8.1860
     8.4244   8.9432   9.4289   9.4768   9.7706   9.7975  10.0667  10.3645
    11.3993  11.4106  11.4400  11.6597  11.6714  11.9535  12.2839  13.3219
    13.3937  14.1594  16.4418  16.9964  17.4238  17.9322

     occupation numbers 
     0.0625   0.0625   0.0625   0.0625   0.0625   0.0625   0.0625   0.0625
     0.0625   0.0625   0.0625   0.0625   0.0625   0.0625   0.0625   0.0625
     0.0625   0.0625   0.0625   0.0625   0.0625   0.0625   0.0625   0.0625
     0.0625   0.0625   0.0625   0.0625   0.0625   0.0625   0.0625   0.0625
     0.0622   0.0622   0.0621   0.0600   0.0597   0.0479   0.0211   0.0000
     0.0000   0.0000   0.0000   0.0000   0.0000   0.0000

          k =-0.4942 0.0000 0.0000 (  2203 PWs)   bands (ev):

   -19.7335 -19.6760  -6.8294  -6.6104  -6.0376  -5.9463  -5.4008  -5.3306
    -3.4961  -3.2854  -2.7889  -2.7015  -2.5570  -2.5431   5.8867   6.3152
     7.0837   7.1314   7.2263   7.3172   7.4627   7.7210   7.8263   8.1860
     8.4244   8.9432   9.4289   9.4768   9.7704   9.7980  10.0666  10.3646
    11.3992  11.4107  11.4401  11.6597  11.6714  11.9535  12.2839  13.3219
    13.3937  14.1594  16.4417  16.9964  17.4238  17.9308

     occupation numbers 
     0.0625   0.0625   0.0625   0.0625   0.0625   0.0625   0.0625   0.0625
     0.0625   0.0625   0.0625   0.0625   0.0625   0.0625   0.0625   0.0625
     0.0625   0.0625   0.0625   0.0625   0.0625   0.0625   0.0625   0.0625
     0.0625   0.0625   0.0625   0.0625   0.0625   0.0625   0.0625   0.0625
     0.0622   0.0622   0.0621   0.0600   0.0597   0.0479   0.0211   0.0000
     0.0000   0.0000   0.0000   0.0000   0.0000   0.0000

          k = 0.4942 0.2853 0.4107 (  2202 PWs)   bands (ev):

   -19.7319 -19.6748  -7.1382  -6.4351  -6.2150  -5.9436  -5.5140  -5.2397
    -3.1796  -3.1185  -3.0305  -2.6385  -2.4685  -2.2090   5.7950   6.3284
     6.4410   6.9188   7.1357   7.2430   7.8732   7.9157   8.1525   8.3223
     8.5853   8.5956   8.6442   9.4240   9.6734  10.0345  10.0690  10.4376
    10.6523  11.2969  11.5672  11.7532  11.8597  11.9732  12.0663  12.4560
    13.3274  14.7973  17.0452  17.2692  17.5240  17.6096

     occupation numbers 
     0.0313   0.0313   0.0313   0.0313   0.0313   0.0313   0.0313   0.0313
     0.0313   0.0313   0.0313   0.0313   0.0313   0.0313   0.0313   0.0313
     0.0313   0.0313   0.0313   0.0313   0.0313   0.0313   0.0313   0.0313
     0.0313   0.0313   0.0313   0.0313   0.0313   0.0312   0.0312   0.0312
     0.0312   0.0312   0.0306   0.0288   0.0267   0.0233   0.0197   0.0049
     0.0000   0.0000   0.0000   0.0000   0.0000   0.0000

          k = 0.0000 0.5706-0.4107 (  2202 PWs)   bands (ev):

   -19.7319 -19.6748  -7.1382  -6.4349  -6.2151  -5.9436  -5.5140  -5.2397
    -3.1796  -3.1185  -3.0305  -2.6385  -2.4685  -2.2090   5.7950   6.3284
     6.4410   6.9188   7.1358   7.2430   7.8746   7.9143   8.1523   8.3226
     8.5852   8.5956   8.6442   9.4239   9.6734  10.0342  10.0693  10.4376
    10.6523  11.2969  11.5672  11.7532  11.8597  11.9732  12.0663  12.4560
    13.3274  14.7973  17.0453  17.2692  17.5240  17.6096

     occupation numbers 
     0.0313   0.0313   0.0313   0.0313   0.0313   0.0313   0.0313   0.0313
     0.0313   0.0313   0.0313   0.0313   0.0313   0.0313   0.0313   0.0313
     0.0313   0.0313   0.0313   0.0313   0.0313   0.0313   0.0313   0.0313
     0.0313   0.0313   0.0313   0.0313   0.0313   0.0312   0.0312   0.0312
     0.0312   0.0312   0.0306   0.0288   0.0267   0.0233   0.0197   0.0049
     0.0000   0.0000   0.0000   0.0000   0.0000   0.0000

          k = 0.7412-0.4280 0.0000 (  2204 PWs)   bands (ev):

   -19.7335 -19.6756  -6.7077  -6.5875  -6.1171  -5.8009  -5.6356  -5.5239
    -3.1575  -3.0778  -3.0361  -2.6634  -2.6401  -2.5737   5.9091   6.5107
     7.0909   7.2043   7.2394   7.3427   7.4375   7.6714   8.0068   8.1558
     8.4669   8.8275   9.4681   9.4774   9.6148   9.6844   9.8594  10.2232
    11.4004  11.4140  11.5104  11.6922  11.7194  11.8805  12.2929  13.2493
    13.3121  14.1779  16.6932  16.7279  17.5953  17.7992

     occupation numbers 
     0.0625   0.0625   0.0625   0.0625   0.0625   0.0625   0.0625   0.0625
     0.0625   0.0625   0.0625   0.0625   0.0625   0.0625   0.0625   0.0625
     0.0625   0.0625   0.0625   0.0625   0.0625   0.0625   0.0625   0.0625
     0.0625   0.0625   0.0625   0.0625   0.0625   0.0625   0.0625   0.0625
     0.0622   0.0622   0.0618   0.0593   0.0586   0.0523   0.0204   0.0000
     0.0000   0.0000   0.0000   0.0000   0.0000   0.0000

          k = 0.0000-0.8559 0.0000 (  2204 PWs)   bands (ev):

   -19.7332 -19.6758  -6.7147  -6.5744  -6.1241  -5.8065  -5.6454  -5.5067
    -3.1555  -3.0780  -3.0361  -2.6662  -2.6443  -2.5699   5.9283   6.4971
     7.0960   7.1984   7.2288   7.3401   7.4523   7.6627   8.0055   8.1422
     8.4524   8.8489   9.4741   9.4989   9.6119   9.6835   9.8588  10.2172
    11.3971  11.4115  11.5092  11.6914  11.7171  11.8837  12.2943  13.2464
    13.3093  14.1827  16.6955  16.7264  17.5932  17.7987

     occupation numbers 
     0.0625   0.0625   0.0625   0.0625   0.0625   0.0625   0.0625   0.0625
     0.0625   0.0625   0.0625   0.0625   0.0625   0.0625   0.0625   0.0625
     0.0625   0.0625   0.0625   0.0625   0.0625   0.0625   0.0625   0.0625
     0.0625   0.0625   0.0625   0.0625   0.0625   0.0625   0.0625   0.0625
     0.0623   0.0622   0.0618   0.0593   0.0587   0.0521   0.0203   0.0000
     0.0000   0.0000   0.0000   0.0000   0.0000   0.0000

          k = 0.4942-0.2853-0.1027 (  2211 PWs)   bands (ev):

   -19.7232 -19.6831  -6.9591  -6.5212  -6.3015  -5.6633  -5.5806  -5.3260
    -3.3041  -3.1568  -3.0170  -2.5948  -2.5490  -2.3692   5.9491   6.2272
     6.8495   7.0299   7.2274   7.2904   7.5739   7.8725   7.9844   8.0394
     8.3900   9.0467   9.1550   9.4084   9.5514   9.6595  10.0217  10.3943
    11.1167  11.5762  11.7016  11.7090  11.7709  11.7886  12.2894  12.7580
    13.4670  14.3462  16.8903  16.9384  17.5867  17.9344

     occupation numbers 
     0.0625   0.0625   0.0625   0.0625   0.0625   0.0625   0.0625   0.0625
     0.0625   0.0625   0.0625   0.0625   0.0625   0.0625   0.0625   0.0625
     0.0625   0.0625   0.0625   0.0625   0.0625   0.0625   0.0625   0.0625
     0.0625   0.0625   0.0625   0.0625   0.0625   0.0625   0.0625   0.0625
     0.0625   0.0612   0.0591   0.0589   0.0571   0.0564   0.0207   0.0012
     0.0000   0.0000   0.0000   0.0000   0.0000   0.0000

          k = 0.0000-0.5706 0.1027 (  2211 PWs)   bands (ev):

   -19.7245 -19.6838  -6.9459  -6.5234  -6.2990  -5.6692  -5.6019  -5.3116
    -3.3039  -3.1566  -3.0166  -2.5923  -2.5487  -2.3648   5.9304   6.2495
     6.8293   7.0194   7.2169   7.2830   7.5798   7.8785   7.9798   8.0443
     8.4023   9.0362   9.1706   9.4033   9.5464   9.6837  10.0249  10.3827
    11.1151  11.5773  11.7045  11.7101  11.7692  11.7892  12.2877  12.7577
    13.4730  14.3431  16.8894  16.9390  17.5874  17.9338

     occupation numbers 
     0.0625   0.0625   0.0625   0.0625   0.0625   0.0625   0.0625   0.0625
     0.0625   0.0625   0.0625   0.0625   0.0625   0.0625   0.0625   0.0625
     0.0625   0.0625   0.0625   0.0625   0.0625   0.0625   0.0625   0.0625
     0.0625   0.0625   0.0625   0.0625   0.0625   0.0625   0.0625   0.0625
     0.0625   0.0612   0.0590   0.0589   0.0571   0.0564   0.0208   0.0012
     0.0000   0.0000   0.0000   0.0000   0.0000   0.0000

          k = 0.7412 0.4280 0.3080 (  2210 PWs)   bands (ev):

   -19.7242 -19.6836  -6.8814  -6.4307  -6.2760  -5.7791  -5.7316  -5.4382
    -3.0591  -3.0389  -2.9544  -2.7162  -2.6079  -2.4150   5.9883   6.3946
     6.9203   7.0065   7.2584   7.2698   7.6030   7.8986   8.0272   8.0746
     8.3788   9.0058   9.0289   9.5233   9.5466   9.5894   9.6649  10.2178
    11.1709  11.5991  11.6891  11.7002  11.8136  11.8543  12.2458  12.7054
    13.4210  14.3126  17.0641  17.0725  17.5558  17.9081

     occupation numbers 
     0.0625   0.0625   0.0625   0.0625   0.0625   0.0625   0.0625   0.0625
     0.0625   0.0625   0.0625   0.0625   0.0625   0.0625   0.0625   0.0625
     0.0625   0.0625   0.0625   0.0625   0.0625   0.0625   0.0625   0.0625
     0.0625   0.0625   0.0625   0.0625   0.0625   0.0625   0.0625   0.0625
     0.0625   0.0609   0.0594   0.0591   0.0555   0.0536   0.0242   0.0019
     0.0000   0.0000   0.0000   0.0000   0.0000   0.0000

          k = 0.0000 0.8559-0.3080 (  2210 PWs)   bands (ev):

   -19.7242 -19.6836  -6.8813  -6.4308  -6.2759  -5.7792  -5.7316  -5.4382
    -3.0591  -3.0389  -2.9544  -2.7162  -2.6078  -2.4150   5.9883   6.3947
     6.9202   7.0066   7.2592   7.2689   7.6030   7.8984   8.0240   8.0787
     8.3781   9.0053   9.0295   9.5236   9.5462   9.5897   9.6647  10.2178
    11.1708  11.5991  11.6893  11.7001  11.8136  11.8542  12.2458  12.7054
    13.4210  14.3126  17.0640  17.0726  17.5558  17.9081

     occupation numbers 
     0.0625   0.0625   0.0625   0.0625   0.0625   0.0625   0.0625   0.0625
     0.0625   0.0625   0.0625   0.0625   0.0625   0.0625   0.0625   0.0625
     0.0625   0.0625   0.0625   0.0625   0.0625   0.0625   0.0625   0.0625
     0.0625   0.0625   0.0625   0.0625   0.0625   0.0625   0.0625   0.0625
     0.0625   0.0609   0.0594   0.0591   0.0555   0.0536   0.0242   0.0019
     0.0000   0.0000   0.0000   0.0000   0.0000   0.0000

          k = 0.2471 0.7133-0.2053 (  2206 PWs)   bands (ev):

   -19.7028 -19.7023  -6.8718  -6.8538  -6.0248  -5.9942  -5.4003  -5.3791
    -3.1441  -3.1435  -2.8023  -2.7973  -2.3756  -2.3712   6.0773   6.1079
     7.0088   7.0236   7.1494   7.1570   7.4253   7.4439   8.1919   8.2376
     8.7855   8.8060   9.0690   9.0847   9.5415   9.5588  10.1050  10.1164
    11.3865  11.3870  11.5860  11.5874  11.8526  11.8580  12.3199  12.3222
    14.0032  14.0129  17.4327  17.4351  17.8707  17.8754

     occupation numbers 
     0.0625   0.0625   0.0625   0.0625   0.0625   0.0625   0.0625   0.0625
     0.0625   0.0625   0.0625   0.0625   0.0625   0.0625   0.0625   0.0625
     0.0625   0.0625   0.0625   0.0625   0.0625   0.0625   0.0625   0.0625
     0.0625   0.0625   0.0625   0.0625   0.0625   0.0625   0.0625   0.0625
     0.0623   0.0623   0.0611   0.0611   0.0537   0.0534   0.0184   0.0182
     0.0000   0.0000   0.0000   0.0000   0.0000   0.0000

          k =-0.7412-0.1427-0.2053 (  2206 PWs)   bands (ev):

   -19.7035 -19.7035  -6.8700  -6.8367  -6.0234  -6.0217  -5.4017  -5.3689
    -3.1438  -3.1417  -2.8024  -2.8011  -2.3758  -2.3617   6.0833   6.1091
     7.0018   7.0053   7.1175   7.1563   7.4245   7.4268   8.2111   8.2464
     8.8096   8.8125   9.0741   9.0761   9.5621   9.5661  10.1009  10.1022
    11.3821  11.3829  11.5859  11.5873  11.8576  11.8579  12.3185  12.3224
    14.0042  14.0140  17.4343  17.4352  17.8701  17.8726

     occupation numbers 
     0.0625   0.0625   0.0625   0.0625   0.0625   0.0625   0.0625   0.0625
     0.0625   0.0625   0.0625   0.0625   0.0625   0.0625   0.0625   0.0625
     0.0625   0.0625   0.0625   0.0625   0.0625   0.0625   0.0625   0.0625
     0.0625   0.0625   0.0625   0.0625   0.0625   0.0625   0.0625   0.0625
     0.0623   0.0623   0.0611   0.0611   0.0535   0.0534   0.0185   0.0182
     0.0000   0.0000   0.0000   0.0000   0.0000   0.0000

     the Fermi energy is    12.1634 ev

!    total energy              =    -538.39301064 Ry
     Harris-Foulkes estimate   =    -538.39301064 Ry
     estimated scf accuracy    <          2.3E-09 Ry

     The total energy is the sum of the following terms:

     one-electron contribution =     -32.89751432 Ry
     hartree contribution      =      83.61024975 Ry
     xc contribution           =    -199.55662102 Ry
     ewald contribution        =    -389.44315552 Ry
     Hubbard energy            =      -0.05999783 Ry
     smearing contrib. (-TS)   =      -0.04597170 Ry

     convergence has been achieved in   8 iterations

     init_run     :      6.70s CPU      6.85s WALL (       1 calls)
     electrons    :    275.89s CPU    281.82s WALL (       1 calls)

     Called by init_run:
     wfcinit      :      0.00s CPU      0.00s WALL (       1 calls)
     potinit      :      0.26s CPU      0.31s WALL (       1 calls)

     Called by electrons:
     c_bands      :    216.87s CPU    221.29s WALL (       8 calls)
     sum_band     :     43.27s CPU     44.10s WALL (       8 calls)
     v_of_rho     :      2.28s CPU      2.30s WALL (       9 calls)
     v_h          :      0.12s CPU      0.12s WALL (       9 calls)
     v_xc         :      2.15s CPU      2.17s WALL (       9 calls)
     newd         :     14.60s CPU     14.66s WALL (       9 calls)
     mix_rho      :      0.21s CPU      0.21s WALL (       8 calls)

     Called by c_bands:
     init_us_2    :      2.14s CPU      2.13s WALL (     576 calls)
     cegterg      :    210.89s CPU    214.31s WALL (     288 calls)

     Called by sum_band:
     sum_band:bec :      0.21s CPU      0.21s WALL (     288 calls)
     addusdens    :      9.15s CPU      9.15s WALL (       8 calls)

     Called by *egterg:
     h_psi        :    150.35s CPU    152.99s WALL (    1326 calls)
     s_psi        :      8.61s CPU      8.64s WALL (    1326 calls)
     g_psi        :      0.74s CPU      0.73s WALL (    1038 calls)
     cdiaghg      :     21.22s CPU     21.39s WALL (    1290 calls)
     cegterg:over :     11.16s CPU     11.35s WALL (    1038 calls)
     cegterg:upda :      7.22s CPU      7.28s WALL (    1038 calls)
     cegterg:last :      4.37s CPU      4.39s WALL (     324 calls)

     Called by h_psi:
     h_psi:vloc   :    121.89s CPU    124.15s WALL (    1326 calls)
     h_psi:vnl    :     18.20s CPU     18.25s WALL (    1326 calls)
     add_vuspsi   :      8.66s CPU      8.68s WALL (    1326 calls)
     vhpsi        :      9.88s CPU     10.21s WALL (    1326 calls)

     General routines
     calbec       :     19.32s CPU     19.80s WALL (    3228 calls)
     fft          :      1.47s CPU      1.50s WALL (     139 calls)
     ffts         :      0.04s CPU      0.04s WALL (      17 calls)
     fftw         :    116.48s CPU    118.78s WALL (   83498 calls)
     interpolate  :      0.25s CPU      0.26s WALL (      17 calls)
     davcio       :      0.01s CPU      1.27s WALL (     612 calls)

     Parallel routines
     fft_scatter  :     32.21s CPU     33.96s WALL (   83654 calls)
     Hubbard U routines
     new_ns       :      1.82s CPU      2.35s WALL (       8 calls)
     vhpsi        :      9.88s CPU     10.21s WALL (    1326 calls)

     PWSCF        :  4m43.01s CPU     4m49.28s WALL


   This run was terminated on:   7:58:45  11Nov2012            

=------------------------------------------------------------------------------=
