   JOB DONE.
=------------------------------------------------------------------------------=

     Program PWSCF v.5.0.1 starts on 11Nov2012 at  8: 4:32 

     This program is part of the open-source Quantum ESPRESSO suite
     for quantum simulation of materials; please cite
         "P. Giannozzi et al., J. Phys.:Condens. Matter 21 395502 (2009);
          URL http://www.quantum-espresso.org", 
     in publications or presentations arising from this work. More details at
     http://www.quantum-espresso.org/quote.php

     Parallel version (MPI), running on     2 processors
     R & G space division:  proc/pool =    2

     Current dimensions of program PWSCF are:
     Max number of different atomic species (ntypx) = 10
     Max number of k-points (npk) =  40000
     Max angular momentum in pseudopotentials (lmaxx) =  3
     Reading input from CoLaO_U0_a-5.in
               file Co.pbe-nd-rrkjus.UPF: wavefunction(s)  4S 3D renormalized
               file O.pbe-rrkjus.UPF: wavefunction(s)  2S renormalized
               file O.pbe-rrkjus.UPF: wavefunction(s)  2S renormalized

     Subspace diagonalization in iterative solution of the eigenvalue problem:
     a serial algorithm will be used


     Parallelization info
     --------------------
     sticks:   dense  smooth     PW     G-vecs:    dense   smooth      PW
     Min        1112     444    131                34808     8786    1448
     Max        1113     445    132                34809     8787    1449
     Sum        2225     889    263                69617    17573    2897


     Title: 
     GGA + U, U = 1D-40, alpha = -0.050                                         


     bravais-lattice index     =            5
     lattice parameter (alat)  =      10.3292  a.u.
     unit-cell volume          =     793.0599 (a.u.)^3
     number of atoms/cell      =           10
     number of atomic types    =            4
     number of electrons       =        76.00
     number of Kohn-Sham states=           46
     kinetic-energy cutoff     =      30.0000  Ry
     charge density cutoff     =     300.0000  Ry
     convergence threshold     =      1.0E-08
     mixing beta               =       0.2000
     number of iterations used =            8  plain     mixing
     Exchange-correlation      =  SLA  PW   PBE  PBE ( 1 4 3 4 0)
     EXX-fraction              =        0.00

     celldm(1)=  10.329242  celldm(2)=   0.000000  celldm(3)=   0.000000
     celldm(4)=   0.488100  celldm(5)=   0.000000  celldm(6)=   0.000000

     crystal axes: (cart. coord. in units of alat)
               a(1) = (   0.505915  -0.292090   0.811624 )  
               a(2) = (   0.000000   0.584180   0.811624 )  
               a(3) = (  -0.505915  -0.292090   0.811624 )  

     reciprocal axes: (cart. coord. in units 2 pi/alat)
               b(1) = (  0.988308 -0.570600  0.410699 )  
               b(2) = (  0.000000  1.141200  0.410699 )  
               b(3) = ( -0.988308 -0.570600  0.410699 )  


     PseudoPot. # 1 for Co read from file:
     /home/mcurnan/dft-course/Project1/example_LaCoO3/Co.pbe-nd-rrkjus.UPF
     MD5 check sum: 3e47a84addf5e975e0edeaeee2a73f59
     Pseudo is Ultrasoft + core correction, Zval =  9.0
     Generated by new atomic code, or converted to UPF format
     Using radial grid of  961 points,  6 beta functions with: 
                l(1) =   0
                l(2) =   0
                l(3) =   1
                l(4) =   1
                l(5) =   2
                l(6) =   2
     Q(r) pseudized with 0 coefficients 


     PseudoPot. # 2 for La read from file:
     /home/mcurnan/dft-course/Project1/example_LaCoO3/La.pbe-nsp-van.UPF
     MD5 check sum: b2f11743f52dde65f77d1302becd7929
     Pseudo is Ultrasoft + core correction, Zval = 11.0
     Generated by new atomic code, or converted to UPF format
     Using radial grid of  907 points,  6 beta functions with: 
                l(1) =   0
                l(2) =   0
                l(3) =   1
                l(4) =   1
                l(5) =   2
                l(6) =   2
     Q(r) pseudized with  6 coefficients,  rinner =    1.200   1.200   1.200
                                                       1.200   1.200

     PseudoPot. # 3 for O  read from file:
     /home/mcurnan/dft-course/Project1/example_LaCoO3/O.pbe-rrkjus.UPF
     MD5 check sum: 390ba29e75625707450f3bd3f0eb6be9
     Pseudo is Ultrasoft, Zval =  6.0
     Generated by new atomic code, or converted to UPF format
     Using radial grid of 1269 points,  4 beta functions with: 
                l(1) =   0
                l(2) =   0
                l(3) =   1
                l(4) =   1
     Q(r) pseudized with 0 coefficients 


     PseudoPot. # 4 for O  read from file:
     /home/mcurnan/dft-course/Project1/example_LaCoO3/O.pbe-rrkjus.UPF
     MD5 check sum: 390ba29e75625707450f3bd3f0eb6be9
     Pseudo is Ultrasoft, Zval =  6.0
     Generated by new atomic code, or converted to UPF format
     Using radial grid of 1269 points,  4 beta functions with: 
                l(1) =   0
                l(2) =   0
                l(3) =   1
                l(4) =   1
     Q(r) pseudized with 0 coefficients 


     atomic species   valence    mass     pseudopotential
        Co1            9.00     1.00000     Co( 1.00)
        La1           11.00     1.00000     La( 1.00)
        O1             6.00     1.00000     O ( 1.00)
        O2             6.00     1.00000     O ( 1.00)
 -----
     simplified LDA+U calculation, Hubbard_lmax = 2
     atomic species  L   Hubbard U  Hubbard alpha
        Co1          2    0.000000    0.000000
        La1          2    0.000000    0.000000
        O1           1    0.000000   -0.050000
        O2           1    0.000000    0.000000
 -----

     No symmetry found


                                    s                        frac. trans.

      isym =  1     identity                                     

 cryst.   s( 1) = (     1          0          0      )
                  (     0          1          0      )
                  (     0          0          1      )

 cart.    s( 1) = (  1.0000000  0.0000000  0.0000000 )
                  (  0.0000000  1.0000000  0.0000000 )
                  (  0.0000000  0.0000000  1.0000000 )


     point group C_1 (1)    
     there are  1 classes
     the character table:

       E    
A      1.00

     the symmetry operations in each class:
     E        1

   Cartesian axes

     site n.     atom                  positions (alat units)
         1           Co1 tau(   1) = (   0.2228050  -0.1992639   1.0141240  )
         2           Co1 tau(   2) = (  -0.2831100   0.0928263   1.4199360  )
         3           La1 tau(   3) = (  -0.2831100   0.0928263   0.8112181  )
         4           La1 tau(   4) = (   0.2228050   0.3849164   1.2170300  )
         5           O1  tau(   5) = (   0.0000000   0.0000000   0.0000000  )
         6           O2  tau(   6) = (   0.0008601   0.1861491   1.6232478  )
         7           O2  tau(   7) = (   0.1616398   0.0923297   0.8116239  )
         8           O2  tau(   8) = (  -0.0603051  -0.1064377   1.2166242  )
         9           O2  tau(   9) = (   0.4447499  -0.0004966   1.2166242  )
        10           O2  tau(  10) = (  -0.2219449   0.3854130   1.2166242  )

   Crystallographic axes

     site n.     atom                  positions (cryst. coord.)
         1           Co1 tau(   1) = (  0.7504000  0.1891000  0.3100000  )
         2           Co1 tau(   2) = (  0.2504000  0.6891000  0.8100000  )
         3           La1 tau(   3) = (  0.0004000  0.4391000  0.5600000  )
         4           La1 tau(   4) = (  0.5004000  0.9391000  0.0600000  )
         5           O1  tau(   5) = (  0.0000000  0.0000000  0.0000000  )
         6           O2  tau(   6) = (  0.5613000  0.8791000  0.5596000  )
         7           O2  tau(   7) = (  0.4404000  0.4387000  0.1209000  )
         8           O2  tau(   8) = (  0.5008000  0.3782000  0.6200000  )
         9           O2  tau(   9) = (  0.9395000  0.4991000  0.0604000  )
        10           O2  tau(  10) = (  0.0604000  0.9395000  0.4991000  )

     number of k points=    36  gaussian smearing, width (Ry)=  0.0300
                       cart. coord. in units 2pi/alat
        k(    1) = (   0.0000000   0.0000000   0.0000000), wk =   0.0312500
        k(    2) = (  -0.2470771  -0.1426500   0.1026748), wk =   0.0625000
        k(    3) = (   0.4941541   0.2853000  -0.2053496), wk =   0.0312500
        k(    4) = (  -0.2470771   0.1426500   0.2053496), wk =   0.0625000
        k(    5) = (   0.4941541   0.5706001  -0.1026748), wk =   0.0625000
        k(    6) = (   0.2470771   0.4279500   0.0000000), wk =   0.0625000
        k(    7) = (   0.4941541  -0.2853000  -0.4106993), wk =   0.0312500
        k(    8) = (   0.0000000   0.0000000   0.3080244), wk =   0.0625000
        k(    9) = (   0.7412312   0.4279500   0.0000000), wk =   0.0625000
        k(   10) = (   0.4941541   0.2853000   0.1026748), wk =   0.0625000
        k(   11) = (   0.7412312  -0.4279500  -0.3080244), wk =   0.0625000
        k(   12) = (   0.4941541  -0.5706001  -0.2053496), wk =   0.0625000
        k(   13) = (   0.0000000   0.0000000  -0.6160489), wk =   0.0312500
        k(   14) = (  -0.2470771   0.1426500  -0.1026748), wk =   0.0625000
        k(   15) = (   0.0000000   0.2853000   0.1026748), wk =   0.0625000
        k(   16) = (   0.4941541  -0.2853000   0.2053496), wk =   0.0312500
        k(   17) = (   0.0000000  -0.5706001  -0.2053496), wk =   0.0312500
        k(   18) = (  -0.2470771  -0.1426500  -0.2053496), wk =   0.0625000
        k(   19) = (   0.0000000  -0.2853000   0.2053496), wk =   0.0625000
        k(   20) = (   0.4941541  -0.5706001   0.1026748), wk =   0.0625000
        k(   21) = (  -0.7412312   0.1426500  -0.1026748), wk =   0.0625000
        k(   22) = (   0.2470771  -0.7132501  -0.1026748), wk =   0.0625000
        k(   23) = (  -0.7412312  -0.1426500   0.1026748), wk =   0.0625000
        k(   24) = (   0.2470771   0.7132501   0.1026748), wk =   0.0625000
        k(   25) = (   0.2470771  -0.4279500   0.0000000), wk =   0.0625000
        k(   26) = (  -0.4941541   0.0000000   0.0000000), wk =   0.0625000
        k(   27) = (   0.4941541   0.2853000   0.4106993), wk =   0.0312500
        k(   28) = (   0.0000000   0.5706001  -0.4106993), wk =   0.0312500
        k(   29) = (   0.7412312  -0.4279500   0.0000000), wk =   0.0625000
        k(   30) = (   0.0000000  -0.8559001   0.0000000), wk =   0.0625000
        k(   31) = (   0.4941541  -0.2853000  -0.1026748), wk =   0.0625000
        k(   32) = (   0.0000000  -0.5706001   0.1026748), wk =   0.0625000
        k(   33) = (   0.7412312   0.4279500   0.3080244), wk =   0.0625000
        k(   34) = (   0.0000000   0.8559001  -0.3080244), wk =   0.0625000
        k(   35) = (   0.2470771   0.7132501  -0.2053496), wk =   0.0625000
        k(   36) = (  -0.7412312  -0.1426500  -0.2053496), wk =   0.0625000

                       cryst. coord.
        k(    1) = (   0.0000000   0.0000000   0.0000000), wk =   0.0312500
        k(    2) = (   0.0000000   0.0000000   0.2500000), wk =   0.0625000
        k(    3) = (   0.0000000   0.0000000  -0.5000000), wk =   0.0312500
        k(    4) = (   0.0000000   0.2500000   0.2500000), wk =   0.0625000
        k(    5) = (   0.0000000   0.2500000  -0.5000000), wk =   0.0625000
        k(    6) = (   0.0000000   0.2500000  -0.2500000), wk =   0.0625000
        k(    7) = (   0.0000000  -0.5000000  -0.5000000), wk =   0.0312500
        k(    8) = (   0.2500000   0.2500000   0.2500000), wk =   0.0625000
        k(    9) = (   0.2500000   0.2500000  -0.5000000), wk =   0.0625000
        k(   10) = (   0.2500000   0.2500000  -0.2500000), wk =   0.0625000
        k(   11) = (   0.2500000  -0.5000000  -0.5000000), wk =   0.0625000
        k(   12) = (   0.2500000  -0.5000000  -0.2500000), wk =   0.0625000
        k(   13) = (  -0.5000000  -0.5000000  -0.5000000), wk =   0.0312500
        k(   14) = (  -0.2500000   0.0000000   0.0000000), wk =   0.0625000
        k(   15) = (   0.0000000   0.2500000   0.0000000), wk =   0.0625000
        k(   16) = (   0.5000000   0.0000000   0.0000000), wk =   0.0312500
        k(   17) = (   0.0000000  -0.5000000   0.0000000), wk =   0.0312500
        k(   18) = (  -0.2500000  -0.2500000   0.0000000), wk =   0.0625000
        k(   19) = (   0.2500000   0.0000000   0.2500000), wk =   0.0625000
        k(   20) = (   0.5000000  -0.2500000   0.0000000), wk =   0.0625000
        k(   21) = (  -0.5000000   0.0000000   0.2500000), wk =   0.0625000
        k(   22) = (   0.2500000  -0.5000000   0.0000000), wk =   0.0625000
        k(   23) = (  -0.2500000   0.0000000   0.5000000), wk =   0.0625000
        k(   24) = (   0.0000000   0.5000000  -0.2500000), wk =   0.0625000
        k(   25) = (   0.2500000  -0.2500000   0.0000000), wk =   0.0625000
        k(   26) = (  -0.2500000   0.0000000   0.2500000), wk =   0.0625000
        k(   27) = (   0.5000000   0.5000000   0.0000000), wk =   0.0312500
        k(   28) = (  -0.5000000   0.0000000  -0.5000000), wk =   0.0312500
        k(   29) = (   0.5000000  -0.2500000  -0.2500000), wk =   0.0625000
        k(   30) = (   0.2500000  -0.5000000   0.2500000), wk =   0.0625000
        k(   31) = (   0.2500000  -0.2500000  -0.2500000), wk =   0.0625000
        k(   32) = (   0.2500000  -0.2500000   0.2500000), wk =   0.0625000
        k(   33) = (   0.5000000   0.5000000  -0.2500000), wk =   0.0625000
        k(   34) = (  -0.5000000   0.2500000  -0.5000000), wk =   0.0625000
        k(   35) = (  -0.2500000   0.2500000  -0.5000000), wk =   0.0625000
        k(   36) = (  -0.5000000  -0.2500000   0.2500000), wk =   0.0625000

     Dense  grid:    69617 G-vectors     FFT dimensions: (  60,  60,  60)

     Smooth grid:    17573 G-vectors     FFT dimensions: (  40,  40,  40)

     Largest allocated arrays     est. size (Mb)     dimensions
        Kohn-Sham Wavefunctions         0.79 Mb     (   1119,   46)
        Atomic wavefunctions            1.06 Mb     (   1119,   62)
        NL pseudopotentials             2.05 Mb     (   1119,  120)
        Each V/rho on FFT grid          1.65 Mb     ( 108000)
        Each G-vector array             0.27 Mb     (  34808)
        G-vector shells                 0.04 Mb     (   4682)
     Largest temporary arrays     est. size (Mb)     dimensions
        Auxiliary wavefunctions         3.14 Mb     (   1119,  184)
        Each subspace H/S matrix        0.52 Mb     ( 184, 184)
        Each <psi_i|beta_j> matrix      0.08 Mb     (    120,   46)
        Arrays for rho mixing          13.18 Mb     ( 108000,   8)

     Check: negative/imaginary core charge=   -0.000028    0.000000

     The initial density is read from file :
     /home/mcurnan/dft-course/Project1/example_LaCoO3/0/O/alpha/CoLaO_U0.save/charge-density.dat

 --- in v_hubbard ---
Hubbard energy   -0.0200
 -------
     Number of +U iterations with fixed ns =  0
     Starting occupations:
 --- enter write_ns ---
 LDA+U parameters:
U( 1)     =  0.00000000
alpha( 1) =  0.00000000
U( 2)     =  0.00000000
alpha( 2) =  0.00000000
U( 3)     =  0.00000000
alpha( 3) = -0.05000000
U( 4)     =  0.00000000
alpha( 4) =  0.00000000
atom    1   Tr[ns(na)] =   8.02205
    eigenvalues: 
  0.596  0.596  0.938  0.941  0.941
    eigenvectors:
  0.000  0.000  1.000  0.000  0.000
  0.057  0.598  0.000  0.178  0.167
  0.598  0.057  0.000  0.167  0.178
  0.210  0.135  0.000  0.095  0.560
  0.135  0.210  0.000  0.560  0.095
    occupations:
  0.938  0.000  0.000  0.000  0.000
  0.000  0.715  0.000 -0.060  0.152
  0.000  0.000  0.715  0.152  0.060
  0.000 -0.060  0.152  0.822  0.000
  0.000  0.152  0.060  0.000  0.822
atom    2   Tr[ns(na)] =   8.02142
    eigenvalues: 
  0.595  0.595  0.938  0.941  0.941
    eigenvectors:
  0.000  0.000  1.000  0.000  0.000
  0.332  0.323  0.000  0.023  0.322
  0.323  0.332  0.000  0.322  0.023
  0.288  0.057  0.000  0.647  0.008
  0.057  0.288  0.000  0.008  0.647
    occupations:
  0.938  0.000  0.000  0.000  0.000
  0.000  0.715  0.000  0.060  0.153
  0.000  0.000  0.715  0.153 -0.060
  0.000  0.060  0.153  0.822  0.000
  0.000  0.153 -0.060  0.000  0.822
atom    3   Tr[ns(na)] =   3.80282
    eigenvalues: 
  0.355  0.355  0.384  0.403  0.403
    eigenvectors:
  0.000  0.000  1.000  0.000  0.000
  0.065  0.856  0.000  0.058  0.021
  0.856  0.065  0.000  0.021  0.058
  0.073  0.006  0.000  0.250  0.670
  0.006  0.073  0.000  0.670  0.250
    occupations:
  0.384  0.000  0.000  0.000  0.000
  0.000  0.359  0.000  0.000  0.013
  0.000  0.000  0.359  0.013  0.000
  0.000  0.000  0.013  0.399  0.000
  0.000  0.013  0.000  0.000  0.399
atom    4   Tr[ns(na)] =   3.80282
    eigenvalues: 
  0.355  0.355  0.384  0.403  0.403
    eigenvectors:
  0.000  0.000  1.000  0.000  0.000
  0.729  0.192  0.000  0.048  0.032
  0.192  0.729  0.000  0.032  0.048
  0.017  0.062  0.000  0.359  0.562
  0.062  0.017  0.000  0.562  0.359
    occupations:
  0.384  0.000  0.000  0.000  0.000
  0.000  0.359  0.000  0.000  0.013
  0.000  0.000  0.359  0.013  0.000
  0.000  0.000  0.013  0.399  0.000
  0.000  0.013  0.000  0.000  0.399
atom    5   Tr[ns(na)] =   5.43357
    eigenvalues: 
  0.846  0.929  0.941
    eigenvectors:
  0.340  0.000  0.660
  0.496  0.250  0.255
  0.164  0.750  0.086
    occupations:
  0.909 -0.039  0.022
 -0.039  0.891  0.022
  0.022  0.022  0.917
atom    6   Tr[ns(na)] =   5.43358
    eigenvalues: 
  0.846  0.929  0.941
    eigenvectors:
  0.340  0.000  0.660
  0.494  0.250  0.256
  0.166  0.750  0.085
    occupations:
  0.909  0.039  0.022
  0.039  0.891 -0.022
  0.022 -0.022  0.917
atom    7   Tr[ns(na)] =   5.43358
    eigenvalues: 
  0.846  0.929  0.941
    eigenvectors:
  0.340  0.000  0.660
  0.000  1.000  0.000
  0.660  0.000  0.340
    occupations:
  0.909  0.000 -0.045
  0.000  0.929  0.000
 -0.045  0.000  0.879
atom    8   Tr[ns(na)] =   5.43357
    eigenvalues: 
  0.846  0.929  0.941
    eigenvectors:
  0.340  0.000  0.660
  0.496  0.250  0.255
  0.164  0.750  0.086
    occupations:
  0.909 -0.039  0.022
 -0.039  0.891  0.022
  0.022  0.022  0.917
atom    9   Tr[ns(na)] =   5.43358
    eigenvalues: 
  0.846  0.929  0.941
    eigenvectors:
  0.340  0.000  0.660
  0.494  0.250  0.256
  0.166  0.750  0.085
    occupations:
  0.909  0.039  0.022
  0.039  0.891 -0.022
  0.022 -0.022  0.917
atom   10   Tr[ns(na)] =   5.43358
    eigenvalues: 
  0.846  0.929  0.941
    eigenvectors:
  0.340  0.000  0.660
  0.000  1.000  0.000
  0.660  0.000  0.340
    occupations:
  0.909  0.000 -0.045
  0.000  0.929  0.000
 -0.045  0.000  0.879
N of occupied +U levels =  56.2505796
 --- exit write_ns ---
 LDA+U Projector read from file 
     Starting wfc from file

     total cpu time spent up to now is        7.5 secs

     per-process dynamical memory:    62.8 Mb

     Self-consistent Calculation

     iteration #  1     ecut=    30.00 Ry     beta=0.20
     Davidson diagonalization with overlap
     c_bands:  1 eigenvalues not converged
     c_bands:  1 eigenvalues not converged
     c_bands:  1 eigenvalues not converged
     c_bands:  1 eigenvalues not converged
     c_bands:  1 eigenvalues not converged
     c_bands:  1 eigenvalues not converged
     c_bands:  1 eigenvalues not converged
     c_bands:  1 eigenvalues not converged
     c_bands:  1 eigenvalues not converged
     c_bands:  1 eigenvalues not converged
     c_bands:  1 eigenvalues not converged
     c_bands:  1 eigenvalues not converged
     c_bands:  1 eigenvalues not converged
     c_bands:  1 eigenvalues not converged
     c_bands:  1 eigenvalues not converged
     c_bands:  1 eigenvalues not converged
     c_bands:  1 eigenvalues not converged
     c_bands:  1 eigenvalues not converged
     c_bands:  1 eigenvalues not converged
     c_bands:  1 eigenvalues not converged
     c_bands:  1 eigenvalues not converged
     c_bands:  1 eigenvalues not converged
     ethr =  1.00E-10,  avg # of iterations = 16.9
 --- enter write_ns ---
 LDA+U parameters:
U( 1)     =  0.00000000
alpha( 1) =  0.00000000
U( 2)     =  0.00000000
alpha( 2) =  0.00000000
U( 3)     =  0.00000000
alpha( 3) = -0.05000000
U( 4)     =  0.00000000
alpha( 4) =  0.00000000
atom    1   Tr[ns(na)] =   8.01989
    eigenvalues: 
  0.595  0.596  0.938  0.941  0.941
    eigenvectors:
  0.000  0.000  0.989  0.010  0.001
  0.554  0.101  0.003  0.195  0.147
  0.101  0.554  0.001  0.146  0.198
  0.171  0.174  0.004  0.510  0.141
  0.174  0.171  0.003  0.138  0.514
    occupations:
  0.938  0.000  0.000  0.000  0.000
  0.000  0.714  0.000 -0.061  0.153
  0.000  0.000  0.715  0.153  0.060
  0.000 -0.061  0.153  0.821  0.000
  0.000  0.153  0.060  0.000  0.822
atom    2   Tr[ns(na)] =   8.01955
    eigenvalues: 
  0.594  0.595  0.938  0.941  0.941
    eigenvectors:
  0.000  0.000  0.991  0.008  0.000
  0.420  0.234  0.002  0.306  0.038
  0.235  0.420  0.001  0.037  0.307
  0.024  0.321  0.000  0.001  0.654
  0.321  0.024  0.005  0.648  0.001
    occupations:
  0.938  0.000  0.000  0.000  0.000
  0.000  0.714  0.000  0.060  0.153
  0.000  0.000  0.714  0.153 -0.060
  0.000  0.060  0.153  0.822  0.000
  0.000  0.153 -0.060  0.000  0.821
atom    3   Tr[ns(na)] =   3.80175
    eigenvalues: 
  0.355  0.355  0.384  0.403  0.403
    eigenvectors:
  0.000  0.000  1.000  0.000  0.000
  0.229  0.691  0.000  0.061  0.019
  0.691  0.229  0.000  0.019  0.061
  0.059  0.021  0.000  0.227  0.693
  0.020  0.060  0.000  0.693  0.227
    occupations:
  0.384  0.000  0.000  0.000  0.000
  0.000  0.359  0.000  0.000  0.013
  0.000  0.000  0.359  0.013  0.000
  0.000  0.000  0.013  0.399  0.000
  0.000  0.013  0.000  0.000  0.399
atom    4   Tr[ns(na)] =   3.80185
    eigenvalues: 
  0.355  0.355  0.384  0.403  0.403
    eigenvectors:
  0.000  0.000  1.000  0.000  0.000
  0.689  0.233  0.000  0.059  0.020
  0.233  0.688  0.000  0.019  0.060
  0.020  0.059  0.000  0.234  0.686
  0.058  0.021  0.000  0.688  0.234
    occupations:
  0.384  0.000  0.000  0.000  0.000
  0.000  0.359  0.000  0.000  0.013
  0.000  0.000  0.359  0.013  0.000
  0.000  0.000  0.013  0.399  0.000
  0.000  0.013  0.000  0.000  0.399
atom    5   Tr[ns(na)] =   5.44096
    eigenvalues: 
  0.848  0.931  0.942
    eigenvectors:
  0.340  0.000  0.660
  0.496  0.250  0.254
  0.164  0.750  0.085
    occupations:
  0.910 -0.039  0.022
 -0.039  0.893  0.022
  0.022  0.022  0.918
atom    6   Tr[ns(na)] =   5.43312
    eigenvalues: 
  0.846  0.929  0.941
    eigenvectors:
  0.340  0.000  0.660
  0.494  0.250  0.256
  0.166  0.750  0.084
    occupations:
  0.909  0.039  0.022
  0.039  0.891 -0.022
  0.022 -0.022  0.917
atom    7   Tr[ns(na)] =   5.43312
    eigenvalues: 
  0.846  0.929  0.941
    eigenvectors:
  0.340  0.000  0.660
  0.000  1.000  0.000
  0.660  0.000  0.340
    occupations:
  0.909  0.000 -0.045
  0.000  0.929  0.000
 -0.045  0.000  0.878
atom    8   Tr[ns(na)] =   5.43310
    eigenvalues: 
  0.846  0.929  0.941
    eigenvectors:
  0.340  0.000  0.660
  0.496  0.250  0.255
  0.164  0.750  0.086
    occupations:
  0.909 -0.039  0.022
 -0.039  0.891  0.022
  0.022  0.022  0.917
atom    9   Tr[ns(na)] =   5.43312
    eigenvalues: 
  0.846  0.929  0.941
    eigenvectors:
  0.340  0.000  0.660
  0.494  0.250  0.256
  0.166  0.750  0.084
    occupations:
  0.909  0.039  0.022
  0.039  0.891 -0.022
  0.022 -0.022  0.917
atom   10   Tr[ns(na)] =   5.43313
    eigenvalues: 
  0.846  0.929  0.941
    eigenvectors:
  0.340  0.000  0.660
  0.000  1.000  0.000
  0.660  0.000  0.340
    occupations:
  0.909  0.000 -0.045
  0.000  0.929  0.000
 -0.045  0.000  0.878
N of occupied +U levels =  56.2495972
 --- exit write_ns ---
 --- in v_hubbard ---
Hubbard energy   -0.0200
 -------

     total cpu time spent up to now is       76.7 secs

     total energy              =    -538.35302612 Ry
     Harris-Foulkes estimate   =    -538.35304113 Ry
     estimated scf accuracy    <       0.00004552 Ry

     iteration #  2     ecut=    30.00 Ry     beta=0.20
     Davidson diagonalization with overlap
     ethr =  5.99E-08,  avg # of iterations =  2.0
 --- enter write_ns ---
 LDA+U parameters:
U( 1)     =  0.00000000
alpha( 1) =  0.00000000
U( 2)     =  0.00000000
alpha( 2) =  0.00000000
U( 3)     =  0.00000000
alpha( 3) = -0.05000000
U( 4)     =  0.00000000
alpha( 4) =  0.00000000
atom    1   Tr[ns(na)] =   8.02286
    eigenvalues: 
  0.596  0.596  0.938  0.941  0.941
    eigenvectors:
  0.000  0.000  0.999  0.001  0.000
  0.554  0.101  0.000  0.135  0.210
  0.101  0.553  0.000  0.210  0.135
  0.171  0.174  0.000  0.598  0.057
  0.174  0.171  0.000  0.056  0.598
    occupations:
  0.938  0.000  0.000  0.000  0.000
  0.000  0.715  0.000 -0.060  0.152
  0.000  0.000  0.715  0.152  0.060
  0.000 -0.060  0.152  0.822  0.000
  0.000  0.152  0.060  0.000  0.822
atom    2   Tr[ns(na)] =   8.02071
    eigenvalues: 
  0.595  0.595  0.938  0.941  0.941
    eigenvectors:
  0.000  0.000  0.999  0.001  0.000
  0.421  0.234  0.000  0.338  0.007
  0.234  0.421  0.000  0.007  0.338
  0.024  0.321  0.000  0.035  0.620
  0.321  0.024  0.000  0.619  0.035
    occupations:
  0.938  0.000  0.000  0.000  0.000
  0.000  0.714  0.000  0.060  0.153
  0.000  0.000  0.715  0.153 -0.060
  0.000  0.060  0.153  0.822  0.000
  0.000  0.153 -0.060  0.000  0.822
atom    3   Tr[ns(na)] =   3.80218
    eigenvalues: 
  0.355  0.355  0.384  0.403  0.403
    eigenvectors:
  0.000  0.000  1.000  0.000  0.000
  0.226  0.694  0.000  0.062  0.018
  0.694  0.226  0.000  0.018  0.062
  0.059  0.020  0.000  0.215  0.705
  0.020  0.059  0.000  0.705  0.215
    occupations:
  0.384  0.000  0.000  0.000  0.000
  0.000  0.359  0.000  0.000  0.013
  0.000  0.000  0.359  0.013  0.000
  0.000  0.000  0.013  0.399  0.000
  0.000  0.013  0.000  0.000  0.399
atom    4   Tr[ns(na)] =   3.80220
    eigenvalues: 
  0.355  0.355  0.384  0.403  0.403
    eigenvectors:
  0.000  0.000  1.000  0.000  0.000
  0.653  0.267  0.000  0.060  0.019
  0.267  0.653  0.000  0.019  0.060
  0.024  0.056  0.000  0.229  0.691
  0.055  0.024  0.000  0.692  0.229
    occupations:
  0.384  0.000  0.000  0.000  0.000
  0.000  0.359  0.000  0.000  0.013
  0.000  0.000  0.359  0.013  0.000
  0.000  0.000  0.013  0.399  0.000
  0.000  0.013  0.000  0.000  0.399
atom    5   Tr[ns(na)] =   5.43638
    eigenvalues: 
  0.847  0.930  0.941
    eigenvectors:
  0.340  0.000  0.660
  0.496  0.250  0.255
  0.164  0.750  0.085
    occupations:
  0.909 -0.039  0.022
 -0.039  0.892  0.022
  0.022  0.022  0.917
atom    6   Tr[ns(na)] =   5.43315
    eigenvalues: 
  0.846  0.929  0.941
    eigenvectors:
  0.340  0.000  0.660
  0.494  0.250  0.256
  0.166  0.750  0.084
    occupations:
  0.909  0.039  0.022
  0.039  0.891 -0.022
  0.022 -0.022  0.917
atom    7   Tr[ns(na)] =   5.43315
    eigenvalues: 
  0.846  0.929  0.941
    eigenvectors:
  0.340  0.000  0.660
  0.000  1.000  0.000
  0.660  0.000  0.340
    occupations:
  0.909  0.000 -0.045
  0.000  0.929  0.000
 -0.045  0.000  0.878
atom    8   Tr[ns(na)] =   5.43340
    eigenvalues: 
  0.846  0.929  0.941
    eigenvectors:
  0.340  0.000  0.660
  0.496  0.250  0.255
  0.164  0.750  0.085
    occupations:
  0.909 -0.039  0.022
 -0.039  0.891  0.022
  0.022  0.022  0.917
atom    9   Tr[ns(na)] =   5.43308
    eigenvalues: 
  0.846  0.929  0.941
    eigenvectors:
  0.340  0.000  0.660
  0.494  0.250  0.256
  0.166  0.750  0.085
    occupations:
  0.909  0.039  0.023
  0.039  0.891 -0.022
  0.023 -0.022  0.917
atom   10   Tr[ns(na)] =   5.43308
    eigenvalues: 
  0.846  0.929  0.941
    eigenvectors:
  0.340  0.000  0.660
  0.000  1.000  0.000
  0.660  0.000  0.340
    occupations:
  0.909  0.000 -0.045
  0.000  0.929  0.000
 -0.045  0.000  0.878
N of occupied +U levels =  56.2501752
 --- exit write_ns ---
 --- in v_hubbard ---
Hubbard energy   -0.0200
 -------

     total cpu time spent up to now is      103.9 secs

     total energy              =    -538.35303233 Ry
     Harris-Foulkes estimate   =    -538.35303306 Ry
     estimated scf accuracy    <       0.00000244 Ry

     iteration #  3     ecut=    30.00 Ry     beta=0.20
     Davidson diagonalization with overlap
     ethr =  3.20E-09,  avg # of iterations =  2.0
 --- enter write_ns ---
 LDA+U parameters:
U( 1)     =  0.00000000
alpha( 1) =  0.00000000
U( 2)     =  0.00000000
alpha( 2) =  0.00000000
U( 3)     =  0.00000000
alpha( 3) = -0.05000000
U( 4)     =  0.00000000
alpha( 4) =  0.00000000
atom    1   Tr[ns(na)] =   8.01755
    eigenvalues: 
  0.595  0.596  0.937  0.940  0.940
    eigenvectors:
  0.000  0.000  0.999  0.001  0.000
  0.553  0.102  0.000  0.150  0.195
  0.102  0.553  0.000  0.195  0.150
  0.171  0.174  0.000  0.580  0.075
  0.174  0.171  0.000  0.075  0.580
    occupations:
  0.937  0.000  0.000  0.000  0.000
  0.000  0.714  0.000 -0.060  0.153
  0.000  0.000  0.715  0.152  0.060
  0.000 -0.060  0.152  0.821  0.000
  0.000  0.153  0.060  0.000  0.821
atom    2   Tr[ns(na)] =   8.02447
    eigenvalues: 
  0.595  0.595  0.939  0.942  0.942
    eigenvectors:
  0.000  0.000  0.999  0.001  0.000
  0.421  0.234  0.000  0.333  0.012
  0.234  0.421  0.000  0.012  0.333
  0.024  0.321  0.000  0.022  0.632
  0.321  0.024  0.000  0.632  0.022
    occupations:
  0.939  0.000  0.000  0.000  0.000
  0.000  0.715  0.000  0.060  0.153
  0.000  0.000  0.715  0.153 -0.060
  0.000  0.060  0.153  0.822  0.000
  0.000  0.153 -0.060  0.000  0.822
atom    3   Tr[ns(na)] =   3.80219
    eigenvalues: 
  0.355  0.355  0.384  0.403  0.403
    eigenvectors:
  0.000  0.000  1.000  0.000  0.000
  0.227  0.694  0.000  0.063  0.017
  0.694  0.227  0.000  0.017  0.063
  0.059  0.020  0.000  0.203  0.718
  0.020  0.059  0.000  0.718  0.203
    occupations:
  0.384  0.000  0.000  0.000  0.000
  0.000  0.359  0.000  0.000  0.013
  0.000  0.000  0.359  0.013  0.000
  0.000  0.000  0.013  0.399  0.000
  0.000  0.013  0.000  0.000  0.399
atom    4   Tr[ns(na)] =   3.80220
    eigenvalues: 
  0.355  0.355  0.384  0.403  0.403
    eigenvectors:
  0.000  0.000  1.000  0.000  0.000
  0.558  0.363  0.000  0.060  0.019
  0.363  0.557  0.000  0.019  0.061
  0.032  0.048  0.000  0.226  0.695
  0.047  0.032  0.000  0.695  0.226
    occupations:
  0.384  0.000  0.000  0.000  0.000
  0.000  0.359  0.000  0.000  0.013
  0.000  0.000  0.359  0.013  0.000
  0.000  0.000  0.013  0.399  0.000
  0.000  0.013  0.000  0.000  0.399
atom    5   Tr[ns(na)] =   5.43652
    eigenvalues: 
  0.847  0.930  0.941
    eigenvectors:
  0.340  0.000  0.660
  0.496  0.250  0.254
  0.164  0.750  0.086
    occupations:
  0.909 -0.039  0.022
 -0.039  0.892  0.022
  0.022  0.022  0.917
atom    6   Tr[ns(na)] =   5.43341
    eigenvalues: 
  0.846  0.929  0.941
    eigenvectors:
  0.340  0.000  0.660
  0.494  0.250  0.256
  0.165  0.750  0.084
    occupations:
  0.909  0.039  0.022
  0.039  0.891 -0.022
  0.022 -0.022  0.917
atom    7   Tr[ns(na)] =   5.43341
    eigenvalues: 
  0.846  0.929  0.941
    eigenvectors:
  0.340  0.000  0.660
  0.000  1.000  0.000
  0.660  0.000  0.340
    occupations:
  0.909  0.000 -0.045
  0.000  0.929  0.000
 -0.045  0.000  0.878
atom    8   Tr[ns(na)] =   5.43357
    eigenvalues: 
  0.846  0.929  0.941
    eigenvectors:
  0.340  0.000  0.660
  0.495  0.250  0.255
  0.164  0.750  0.086
    occupations:
  0.909 -0.039  0.022
 -0.039  0.891  0.022
  0.022  0.022  0.917
atom    9   Tr[ns(na)] =   5.43337
    eigenvalues: 
  0.846  0.929  0.941
    eigenvectors:
  0.340  0.000  0.660
  0.494  0.250  0.256
  0.166  0.750  0.084
    occupations:
  0.909  0.039  0.022
  0.039  0.891 -0.022
  0.022 -0.022  0.917
atom   10   Tr[ns(na)] =   5.43337
    eigenvalues: 
  0.846  0.929  0.941
    eigenvectors:
  0.340  0.000  0.660
  0.000  1.000  0.000
  0.660  0.000  0.340
    occupations:
  0.909  0.000 -0.045
  0.000  0.929  0.000
 -0.045  0.000  0.878
N of occupied +U levels =  56.2500651
 --- exit write_ns ---
 --- in v_hubbard ---
Hubbard energy   -0.0200
 -------

     total cpu time spent up to now is      129.2 secs

     total energy              =    -538.35303184 Ry
     Harris-Foulkes estimate   =    -538.35303378 Ry
     estimated scf accuracy    <       0.00002925 Ry

     iteration #  4     ecut=    30.00 Ry     beta=0.20
     Davidson diagonalization with overlap
     ethr =  3.20E-09,  avg # of iterations =  1.4
 --- enter write_ns ---
 LDA+U parameters:
U( 1)     =  0.00000000
alpha( 1) =  0.00000000
U( 2)     =  0.00000000
alpha( 2) =  0.00000000
U( 3)     =  0.00000000
alpha( 3) = -0.05000000
U( 4)     =  0.00000000
alpha( 4) =  0.00000000
atom    1   Tr[ns(na)] =   8.02186
    eigenvalues: 
  0.596  0.596  0.938  0.941  0.941
    eigenvectors:
  0.000  0.000  0.999  0.001  0.000
  0.553  0.102  0.000  0.153  0.191
  0.102  0.553  0.000  0.192  0.154
  0.172  0.174  0.000  0.576  0.078
  0.174  0.171  0.000  0.078  0.577
    occupations:
  0.938  0.000  0.000  0.000  0.000
  0.000  0.715  0.000 -0.061  0.153
  0.000  0.000  0.715  0.152  0.060
  0.000 -0.061  0.152  0.822  0.000
  0.000  0.153  0.060  0.000  0.822
atom    2   Tr[ns(na)] =   8.02017
    eigenvalues: 
  0.595  0.595  0.938  0.941  0.941
    eigenvectors:
  0.000  0.000  0.999  0.001  0.000
  0.421  0.234  0.000  0.332  0.013
  0.234  0.421  0.000  0.013  0.332
  0.024  0.321  0.000  0.020  0.635
  0.321  0.024  0.000  0.635  0.020
    occupations:
  0.938  0.000  0.000  0.000  0.000
  0.000  0.714  0.000  0.060  0.153
  0.000  0.000  0.714  0.153 -0.060
  0.000  0.060  0.153  0.822  0.000
  0.000  0.153 -0.060  0.000  0.822
atom    3   Tr[ns(na)] =   3.80219
    eigenvalues: 
  0.355  0.355  0.384  0.403  0.403
    eigenvectors:
  0.000  0.000  1.000  0.000  0.000
  0.227  0.693  0.000  0.063  0.016
  0.693  0.227  0.000  0.016  0.063
  0.059  0.020  0.000  0.193  0.727
  0.020  0.059  0.000  0.727  0.193
    occupations:
  0.384  0.000  0.000  0.000  0.000
  0.000  0.359  0.000  0.000  0.013
  0.000  0.000  0.359  0.013  0.000
  0.000  0.000  0.013  0.399  0.000
  0.000  0.013  0.000  0.000  0.399
atom    4   Tr[ns(na)] =   3.80220
    eigenvalues: 
  0.355  0.355  0.384  0.403  0.403
    eigenvectors:
  0.000  0.000  1.000  0.000  0.000
  0.125  0.796  0.000  0.060  0.019
  0.795  0.125  0.000  0.019  0.060
  0.068  0.011  0.000  0.228  0.692
  0.011  0.068  0.000  0.693  0.228
    occupations:
  0.384  0.000  0.000  0.000  0.000
  0.000  0.359  0.000  0.000  0.013
  0.000  0.000  0.359  0.013  0.000
  0.000  0.000  0.013  0.399  0.000
  0.000  0.013  0.000  0.000  0.399
atom    5   Tr[ns(na)] =   5.43651
    eigenvalues: 
  0.847  0.930  0.941
    eigenvectors:
  0.340  0.000  0.660
  0.496  0.250  0.255
  0.164  0.750  0.085
    occupations:
  0.909 -0.039  0.022
 -0.039  0.892  0.022
  0.022  0.022  0.917
atom    6   Tr[ns(na)] =   5.43341
    eigenvalues: 
  0.846  0.929  0.941
    eigenvectors:
  0.340  0.000  0.660
  0.494  0.250  0.256
  0.166  0.750  0.084
    occupations:
  0.909  0.039  0.022
  0.039  0.891 -0.022
  0.022 -0.022  0.917
atom    7   Tr[ns(na)] =   5.43341
    eigenvalues: 
  0.846  0.929  0.941
    eigenvectors:
  0.340  0.000  0.660
  0.000  1.000  0.000
  0.660  0.000  0.340
    occupations:
  0.909  0.000 -0.045
  0.000  0.929  0.000
 -0.045  0.000  0.878
atom    8   Tr[ns(na)] =   5.43356
    eigenvalues: 
  0.846  0.929  0.941
    eigenvectors:
  0.340  0.000  0.660
  0.496  0.250  0.255
  0.164  0.750  0.085
    occupations:
  0.909 -0.039  0.022
 -0.039  0.891  0.022
  0.022  0.022  0.917
atom    9   Tr[ns(na)] =   5.43338
    eigenvalues: 
  0.846  0.929  0.941
    eigenvectors:
  0.340  0.000  0.660
  0.494  0.250  0.256
  0.166  0.750  0.084
    occupations:
  0.909  0.039  0.023
  0.039  0.891 -0.022
  0.023 -0.022  0.917
atom   10   Tr[ns(na)] =   5.43338
    eigenvalues: 
  0.846  0.929  0.941
    eigenvectors:
  0.340  0.000  0.660
  0.000  1.000  0.000
  0.660  0.000  0.340
    occupations:
  0.909  0.000 -0.045
  0.000  0.929  0.000
 -0.045  0.000  0.878
N of occupied +U levels =  56.2500737
 --- exit write_ns ---
 --- in v_hubbard ---
Hubbard energy   -0.0200
 -------

     total cpu time spent up to now is      152.2 secs

     total energy              =    -538.35303285 Ry
     Harris-Foulkes estimate   =    -538.35303292 Ry
     estimated scf accuracy    <       0.00000078 Ry

     iteration #  5     ecut=    30.00 Ry     beta=0.20
     Davidson diagonalization with overlap
     ethr =  1.03E-09,  avg # of iterations =  1.0
 --- enter write_ns ---
 LDA+U parameters:
U( 1)     =  0.00000000
alpha( 1) =  0.00000000
U( 2)     =  0.00000000
alpha( 2) =  0.00000000
U( 3)     =  0.00000000
alpha( 3) = -0.05000000
U( 4)     =  0.00000000
alpha( 4) =  0.00000000
atom    1   Tr[ns(na)] =   8.02150
    eigenvalues: 
  0.596  0.596  0.938  0.941  0.941
    eigenvectors:
  0.000  0.000  0.999  0.001  0.000
  0.553  0.102  0.000  0.165  0.180
  0.102  0.553  0.000  0.180  0.165
  0.172  0.174  0.000  0.561  0.093
  0.173  0.172  0.000  0.093  0.562
    occupations:
  0.938  0.000  0.000  0.000  0.000
  0.000  0.715  0.000 -0.060  0.153
  0.000  0.000  0.715  0.152  0.060
  0.000 -0.060  0.152  0.822  0.000
  0.000  0.153  0.060  0.000  0.822
atom    2   Tr[ns(na)] =   8.02086
    eigenvalues: 
  0.595  0.595  0.938  0.941  0.941
    eigenvectors:
  0.000  0.000  0.999  0.001  0.000
  0.421  0.233  0.000  0.327  0.018
  0.234  0.421  0.000  0.018  0.327
  0.024  0.321  0.000  0.013  0.642
  0.321  0.024  0.000  0.642  0.013
    occupations:
  0.938  0.000  0.000  0.000  0.000
  0.000  0.714  0.000  0.060  0.153
  0.000  0.000  0.714  0.153 -0.060
  0.000  0.060  0.153  0.822  0.000
  0.000  0.153 -0.060  0.000  0.822
atom    3   Tr[ns(na)] =   3.80223
    eigenvalues: 
  0.355  0.355  0.384  0.403  0.403
    eigenvectors:
  0.000  0.000  1.000  0.000  0.000
  0.228  0.693  0.000  0.067  0.013
  0.693  0.228  0.000  0.013  0.067
  0.059  0.020  0.000  0.157  0.763
  0.020  0.059  0.000  0.763  0.157
    occupations:
  0.384  0.000  0.000  0.000  0.000
  0.000  0.359  0.000  0.000  0.013
  0.000  0.000  0.359  0.013  0.000
  0.000  0.000  0.013  0.399  0.000
  0.000  0.013  0.000  0.000  0.399
atom    4   Tr[ns(na)] =   3.80223
    eigenvalues: 
  0.355  0.355  0.384  0.403  0.403
    eigenvectors:
  0.000  0.000  1.000  0.000  0.000
  0.174  0.747  0.000  0.060  0.019
  0.746  0.174  0.000  0.019  0.060
  0.064  0.016  0.000  0.230  0.691
  0.016  0.064  0.000  0.691  0.229
    occupations:
  0.384  0.000  0.000  0.000  0.000
  0.000  0.359  0.000  0.000  0.013
  0.000  0.000  0.359  0.013  0.000
  0.000  0.000  0.013  0.399  0.000
  0.000  0.013  0.000  0.000  0.399
atom    5   Tr[ns(na)] =   5.43645
    eigenvalues: 
  0.847  0.930  0.941
    eigenvectors:
  0.340  0.000  0.660
  0.496  0.250  0.255
  0.164  0.750  0.085
    occupations:
  0.909 -0.039  0.022
 -0.039  0.892  0.022
  0.022  0.022  0.917
atom    6   Tr[ns(na)] =   5.43336
    eigenvalues: 
  0.846  0.929  0.941
    eigenvectors:
  0.340  0.000  0.660
  0.494  0.250  0.256
  0.166  0.750  0.084
    occupations:
  0.909  0.039  0.022
  0.039  0.891 -0.022
  0.022 -0.022  0.917
atom    7   Tr[ns(na)] =   5.43336
    eigenvalues: 
  0.846  0.929  0.941
    eigenvectors:
  0.340  0.000  0.660
  0.000  1.000  0.000
  0.660  0.000  0.340
    occupations:
  0.909  0.000 -0.045
  0.000  0.929  0.000
 -0.045  0.000  0.878
atom    8   Tr[ns(na)] =   5.43349
    eigenvalues: 
  0.846  0.929  0.941
    eigenvectors:
  0.340  0.000  0.660
  0.496  0.250  0.255
  0.164  0.750  0.086
    occupations:
  0.909 -0.039  0.022
 -0.039  0.891  0.022
  0.022  0.022  0.917
atom    9   Tr[ns(na)] =   5.43333
    eigenvalues: 
  0.846  0.929  0.941
    eigenvectors:
  0.340  0.000  0.660
  0.494  0.250  0.256
  0.166  0.750  0.084
    occupations:
  0.909  0.039  0.023
  0.039  0.891 -0.022
  0.023 -0.022  0.917
atom   10   Tr[ns(na)] =   5.43333
    eigenvalues: 
  0.846  0.929  0.941
    eigenvectors:
  0.340  0.000  0.660
  0.000  1.000  0.000
  0.660  0.000  0.340
    occupations:
  0.909  0.000 -0.045
  0.000  0.929  0.000
 -0.045  0.000  0.878
N of occupied +U levels =  56.2501271
 --- exit write_ns ---
 --- in v_hubbard ---
Hubbard energy   -0.0200
 -------

     total cpu time spent up to now is      175.3 secs

     total energy              =    -538.35303284 Ry
     Harris-Foulkes estimate   =    -538.35303288 Ry
     estimated scf accuracy    <       0.00000011 Ry

     iteration #  6     ecut=    30.00 Ry     beta=0.20
     Davidson diagonalization with overlap
     ethr =  1.48E-10,  avg # of iterations =  2.0
 --- enter write_ns ---
 LDA+U parameters:
U( 1)     =  0.00000000
alpha( 1) =  0.00000000
U( 2)     =  0.00000000
alpha( 2) =  0.00000000
U( 3)     =  0.00000000
alpha( 3) = -0.05000000
U( 4)     =  0.00000000
alpha( 4) =  0.00000000
atom    1   Tr[ns(na)] =   8.02149
    eigenvalues: 
  0.596  0.596  0.938  0.941  0.941
    eigenvectors:
  0.000  0.000  0.999  0.001  0.000
  0.552  0.102  0.000  0.187  0.157
  0.102  0.552  0.000  0.157  0.188
  0.172  0.173  0.000  0.529  0.125
  0.173  0.172  0.000  0.125  0.530
    occupations:
  0.938  0.000  0.000  0.000  0.000
  0.000  0.715  0.000 -0.060  0.153
  0.000  0.000  0.715  0.152  0.060
  0.000 -0.060  0.152  0.822  0.000
  0.000  0.153  0.060  0.000  0.822
atom    2   Tr[ns(na)] =   8.02087
    eigenvalues: 
  0.595  0.595  0.938  0.941  0.941
    eigenvectors:
  0.000  0.000  0.999  0.001  0.000
  0.422  0.233  0.000  0.314  0.031
  0.233  0.422  0.000  0.031  0.314
  0.024  0.321  0.000  0.003  0.652
  0.321  0.024  0.001  0.651  0.003
    occupations:
  0.938  0.000  0.000  0.000  0.000
  0.000  0.714  0.000  0.060  0.153
  0.000  0.000  0.714  0.153 -0.060
  0.000  0.060  0.153  0.822  0.000
  0.000  0.153 -0.060  0.000  0.822
atom    3   Tr[ns(na)] =   3.80231
    eigenvalues: 
  0.355  0.355  0.384  0.403  0.403
    eigenvectors:
  0.000  0.000  1.000  0.000  0.000
  0.228  0.693  0.000  0.064  0.016
  0.693  0.228  0.000  0.016  0.064
  0.059  0.020  0.000  0.192  0.728
  0.020  0.059  0.000  0.728  0.192
    occupations:
  0.384  0.000  0.000  0.000  0.000
  0.000  0.359  0.000  0.000  0.013
  0.000  0.000  0.359  0.013  0.000
  0.000  0.000  0.013  0.399  0.000
  0.000  0.013  0.000  0.000  0.399
atom    4   Tr[ns(na)] =   3.80232
    eigenvalues: 
  0.355  0.355  0.384  0.403  0.403
    eigenvectors:
  0.000  0.000  1.000  0.000  0.000
  0.189  0.732  0.000  0.060  0.019
  0.731  0.189  0.000  0.019  0.060
  0.063  0.017  0.000  0.230  0.691
  0.017  0.062  0.000  0.691  0.230
    occupations:
  0.384  0.000  0.000  0.000  0.000
  0.000  0.359  0.000  0.000  0.013
  0.000  0.000  0.359  0.013  0.000
  0.000  0.000  0.013  0.399  0.000
  0.000  0.013  0.000  0.000  0.399
atom    5   Tr[ns(na)] =   5.43644
    eigenvalues: 
  0.847  0.930  0.941
    eigenvectors:
  0.340  0.000  0.660
  0.496  0.250  0.255
  0.164  0.750  0.085
    occupations:
  0.909 -0.039  0.022
 -0.039  0.892  0.022
  0.022  0.022  0.917
atom    6   Tr[ns(na)] =   5.43334
    eigenvalues: 
  0.846  0.929  0.941
    eigenvectors:
  0.340  0.000  0.660
  0.494  0.250  0.256
  0.166  0.750  0.084
    occupations:
  0.909  0.039  0.022
  0.039  0.891 -0.022
  0.022 -0.022  0.917
atom    7   Tr[ns(na)] =   5.43334
    eigenvalues: 
  0.846  0.929  0.941
    eigenvectors:
  0.340  0.000  0.660
  0.000  1.000  0.000
  0.660  0.000  0.340
    occupations:
  0.909  0.000 -0.045
  0.000  0.929  0.000
 -0.045  0.000  0.878
atom    8   Tr[ns(na)] =   5.43346
    eigenvalues: 
  0.846  0.929  0.941
    eigenvectors:
  0.340  0.000  0.660
  0.496  0.250  0.255
  0.164  0.750  0.086
    occupations:
  0.909 -0.039  0.022
 -0.039  0.891  0.022
  0.022  0.022  0.917
atom    9   Tr[ns(na)] =   5.43331
    eigenvalues: 
  0.846  0.929  0.941
    eigenvectors:
  0.340  0.000  0.660
  0.494  0.250  0.256
  0.166  0.750  0.084
    occupations:
  0.909  0.039  0.023
  0.039  0.891 -0.022
  0.023 -0.022  0.917
atom   10   Tr[ns(na)] =   5.43331
    eigenvalues: 
  0.846  0.929  0.941
    eigenvectors:
  0.340  0.000  0.660
  0.000  1.000  0.000
  0.660  0.000  0.340
    occupations:
  0.909  0.000 -0.045
  0.000  0.929  0.000
 -0.045  0.000  0.878
N of occupied +U levels =  56.2501812
 --- exit write_ns ---
 --- in v_hubbard ---
Hubbard energy   -0.0200
 -------

     total cpu time spent up to now is      201.0 secs

     total energy              =    -538.35303285 Ry
     Harris-Foulkes estimate   =    -538.35303285 Ry
     estimated scf accuracy    <       0.00000002 Ry

     iteration #  7     ecut=    30.00 Ry     beta=0.20
     Davidson diagonalization with overlap
     ethr =  2.03E-11,  avg # of iterations =  2.0
 --- enter write_ns ---
 LDA+U parameters:
U( 1)     =  0.00000000
alpha( 1) =  0.00000000
U( 2)     =  0.00000000
alpha( 2) =  0.00000000
U( 3)     =  0.00000000
alpha( 3) = -0.05000000
U( 4)     =  0.00000000
alpha( 4) =  0.00000000
atom    1   Tr[ns(na)] =   8.02147
    eigenvalues: 
  0.596  0.596  0.938  0.941  0.941
    eigenvectors:
  0.000  0.000  0.999  0.001  0.000
  0.553  0.102  0.000  0.184  0.161
  0.102  0.552  0.000  0.161  0.185
  0.172  0.173  0.000  0.534  0.120
  0.173  0.172  0.000  0.120  0.535
    occupations:
  0.938  0.000  0.000  0.000  0.000
  0.000  0.715  0.000 -0.060  0.153
  0.000  0.000  0.715  0.152  0.060
  0.000 -0.060  0.152  0.822  0.000
  0.000  0.153  0.060  0.000  0.822
atom    2   Tr[ns(na)] =   8.02085
    eigenvalues: 
  0.595  0.595  0.938  0.941  0.941
    eigenvectors:
  0.000  0.000  0.999  0.001  0.000
  0.422  0.233  0.000  0.316  0.029
  0.233  0.422  0.000  0.029  0.316
  0.024  0.321  0.000  0.004  0.651
  0.321  0.024  0.001  0.650  0.004
    occupations:
  0.938  0.000  0.000  0.000  0.000
  0.000  0.714  0.000  0.060  0.153
  0.000  0.000  0.714  0.153 -0.060
  0.000  0.060  0.153  0.822  0.000
  0.000  0.153 -0.060  0.000  0.822
atom    3   Tr[ns(na)] =   3.80230
    eigenvalues: 
  0.355  0.355  0.384  0.403  0.403
    eigenvectors:
  0.000  0.000  1.000  0.000  0.000
  0.228  0.693  0.000  0.064  0.016
  0.693  0.228  0.000  0.016  0.064
  0.059  0.020  0.000  0.191  0.729
  0.020  0.059  0.000  0.729  0.191
    occupations:
  0.384  0.000  0.000  0.000  0.000
  0.000  0.359  0.000  0.000  0.013
  0.000  0.000  0.359  0.013  0.000
  0.000  0.000  0.013  0.399  0.000
  0.000  0.013  0.000  0.000  0.399
atom    4   Tr[ns(na)] =   3.80231
    eigenvalues: 
  0.355  0.355  0.384  0.403  0.403
    eigenvectors:
  0.000  0.000  1.000  0.000  0.000
  0.203  0.717  0.000  0.060  0.019
  0.717  0.204  0.000  0.019  0.060
  0.061  0.018  0.000  0.231  0.690
  0.018  0.061  0.000  0.690  0.231
    occupations:
  0.384  0.000  0.000  0.000  0.000
  0.000  0.359  0.000  0.000  0.013
  0.000  0.000  0.359  0.013  0.000
  0.000  0.000  0.013  0.399  0.000
  0.000  0.013  0.000  0.000  0.399
atom    5   Tr[ns(na)] =   5.43641
    eigenvalues: 
  0.847  0.930  0.941
    eigenvectors:
  0.340  0.000  0.660
  0.496  0.250  0.255
  0.164  0.750  0.085
    occupations:
  0.909 -0.039  0.022
 -0.039  0.892  0.022
  0.022  0.022  0.917
atom    6   Tr[ns(na)] =   5.43335
    eigenvalues: 
  0.846  0.929  0.941
    eigenvectors:
  0.340  0.000  0.660
  0.494  0.250  0.256
  0.166  0.750  0.084
    occupations:
  0.909  0.039  0.022
  0.039  0.891 -0.022
  0.022 -0.022  0.917
atom    7   Tr[ns(na)] =   5.43335
    eigenvalues: 
  0.846  0.929  0.941
    eigenvectors:
  0.340  0.000  0.660
  0.000  1.000  0.000
  0.660  0.000  0.340
    occupations:
  0.909  0.000 -0.045
  0.000  0.929  0.000
 -0.045  0.000  0.878
atom    8   Tr[ns(na)] =   5.43347
    eigenvalues: 
  0.846  0.929  0.941
    eigenvectors:
  0.340  0.000  0.660
  0.496  0.250  0.255
  0.164  0.750  0.086
    occupations:
  0.909 -0.039  0.022
 -0.039  0.891  0.022
  0.022  0.022  0.917
atom    9   Tr[ns(na)] =   5.43332
    eigenvalues: 
  0.846  0.929  0.941
    eigenvectors:
  0.340  0.000  0.660
  0.494  0.250  0.256
  0.166  0.750  0.084
    occupations:
  0.909  0.039  0.023
  0.039  0.891 -0.022
  0.023 -0.022  0.917
atom   10   Tr[ns(na)] =   5.43332
    eigenvalues: 
  0.846  0.929  0.941
    eigenvectors:
  0.340  0.000  0.660
  0.000  1.000  0.000
  0.660  0.000  0.340
    occupations:
  0.909  0.000 -0.045
  0.000  0.929  0.000
 -0.045  0.000  0.878
N of occupied +U levels =  56.2501672
 --- exit write_ns ---
 --- in v_hubbard ---
Hubbard energy   -0.0200
 -------

     total cpu time spent up to now is      228.1 secs

     End of self-consistent calculation

          k = 0.0000 0.0000 0.0000 (  2175 PWs)   bands (ev):

   -19.7936 -19.6204  -6.5284  -5.8085  -5.8045  -5.7946  -5.7855  -5.4614
    -3.7477  -3.2582  -3.1835  -3.1827  -3.0187  -3.0184   5.1918   6.9375
     6.9422   7.5226   7.5281   7.7191   7.8281   7.8308   7.8893   9.3050
     9.6227   9.6275   9.8795   9.9296   9.9320  10.4757  10.4770  10.6694
    10.6694  10.6878  10.8172  11.5146  11.5153  12.1856  12.3029  12.3038
    14.7780  14.7793  15.4326  15.4334  16.1989  16.7910

     occupation numbers 
     0.0313   0.0313   0.0313   0.0313   0.0313   0.0313   0.0313   0.0313
     0.0313   0.0313   0.0313   0.0313   0.0313   0.0313   0.0313   0.0313
     0.0313   0.0313   0.0313   0.0313   0.0313   0.0313   0.0313   0.0313
     0.0313   0.0313   0.0312   0.0312   0.0312   0.0312   0.0312   0.0312
     0.0312   0.0312   0.0312   0.0309   0.0309   0.0150   0.0101   0.0101
     0.0000   0.0000   0.0000   0.0000   0.0000   0.0000

          k =-0.2471-0.1427 0.1027 (  2181 PWs)   bands (ev):

   -19.7658 -19.6435  -6.7089  -6.2682  -5.9089  -5.8209  -5.5848  -5.4500
    -3.5665  -3.3757  -2.9155  -2.8924  -2.8297  -2.7484   5.5575   6.8871
     7.0406   7.0473   7.3472   7.5178   7.5822   7.8299   7.8715   8.6240
     8.7224   9.3538   9.6714   9.8113   9.8596  10.0403  10.3866  10.3973
    11.0420  11.0735  11.1559  11.8870  11.9388  12.0003  12.3614  12.4208
    14.3219  14.3307  15.8205  16.0763  16.9759  17.2716

     occupation numbers 
     0.0625   0.0625   0.0625   0.0625   0.0625   0.0625   0.0625   0.0625
     0.0625   0.0625   0.0625   0.0625   0.0625   0.0625   0.0625   0.0625
     0.0625   0.0625   0.0625   0.0625   0.0625   0.0625   0.0625   0.0625
     0.0625   0.0625   0.0625   0.0625   0.0625   0.0625   0.0625   0.0625
     0.0625   0.0625   0.0625   0.0523   0.0493   0.0451   0.0159   0.0120
     0.0000   0.0000   0.0000   0.0000   0.0000   0.0000

          k = 0.4942 0.2853-0.2053 (  2202 PWs)   bands (ev):

   -19.7026 -19.7020  -6.7105  -6.6965  -5.9331  -5.9288  -5.4974  -5.4864
    -3.3648  -3.3631  -2.7745  -2.7714  -2.4987  -2.4963   6.0924   6.1034
     7.2332   7.2432   7.2942   7.3160   7.6577   7.6878   7.9913   8.0124
     8.2032   8.2273   9.5472   9.5483   9.8843   9.8927  10.2905  10.3002
    11.4807  11.4813  11.5597  11.5621  11.7243  11.7281  13.3016  13.3295
    13.3888  13.4185  16.8390  16.8450  17.1372  17.1415

     occupation numbers 
     0.0313   0.0313   0.0313   0.0313   0.0313   0.0313   0.0313   0.0313
     0.0313   0.0313   0.0313   0.0313   0.0313   0.0313   0.0313   0.0313
     0.0313   0.0313   0.0313   0.0313   0.0313   0.0313   0.0313   0.0313
     0.0313   0.0313   0.0313   0.0313   0.0312   0.0312   0.0312   0.0312
     0.0310   0.0310   0.0307   0.0307   0.0293   0.0293   0.0000   0.0000
     0.0000   0.0000   0.0000   0.0000   0.0000   0.0000

          k =-0.2471 0.1427 0.2053 (  2195 PWs)   bands (ev):

   -19.7609 -19.6459  -6.8360  -6.2086  -6.0451  -5.7980  -5.6270  -5.4261
    -3.3924  -3.2515  -3.0849  -2.8748  -2.7974  -2.5499   5.5930   6.8494
     6.9401   7.1288   7.2515   7.4850   7.4991   7.8786   7.8807   8.6935
     8.9122   8.9193   9.3073   9.8019   9.9974  10.1083  10.2128  10.3106
    10.6920  11.3985  11.4241  11.5137  11.9375  12.0045  12.1785  12.7414
    13.6437  14.7941  15.9967  16.1988  17.0410  17.5404

     occupation numbers 
     0.0625   0.0625   0.0625   0.0625   0.0625   0.0625   0.0625   0.0625
     0.0625   0.0625   0.0625   0.0625   0.0625   0.0625   0.0625   0.0625
     0.0625   0.0625   0.0625   0.0625   0.0625   0.0625   0.0625   0.0625
     0.0625   0.0625   0.0625   0.0625   0.0625   0.0625   0.0625   0.0625
     0.0625   0.0623   0.0622   0.0618   0.0494   0.0448   0.0305   0.0015
     0.0000   0.0000   0.0000   0.0000   0.0000   0.0000

          k = 0.4942 0.5706-0.1027 (  2198 PWs)   bands (ev):

   -19.7211 -19.6807  -6.9385  -6.6264  -6.1114  -5.8638  -5.4788  -5.3504
    -3.2882  -3.2408  -2.8636  -2.6953  -2.5152  -2.3736   5.9269   6.2827
     6.8988   7.0456   7.2393   7.3584   7.5681   7.8152   7.9579   8.0913
     8.3711   8.9224   9.1742   9.3627   9.6772   9.8275   9.9813  10.3752
    11.1083  11.5479  11.6366  11.7089  11.8397  11.8611  12.3435  12.7473
    13.4312  14.3702  16.9101  17.1206  17.3167  18.0208

     occupation numbers 
     0.0625   0.0625   0.0625   0.0625   0.0625   0.0625   0.0625   0.0625
     0.0625   0.0625   0.0625   0.0625   0.0625   0.0625   0.0625   0.0625
     0.0625   0.0625   0.0625   0.0625   0.0625   0.0625   0.0625   0.0625
     0.0625   0.0625   0.0625   0.0625   0.0625   0.0625   0.0625   0.0625
     0.0625   0.0615   0.0605   0.0591   0.0546   0.0536   0.0171   0.0014
     0.0000   0.0000   0.0000   0.0000   0.0000   0.0000

          k = 0.2471 0.4280 0.0000 (  2203 PWs)   bands (ev):

   -19.7310 -19.6733  -6.8272  -6.6202  -6.0238  -5.9570  -5.4109  -5.3327
    -3.4939  -3.2827  -2.7890  -2.6968  -2.5538  -2.5446   5.8946   6.3367
     7.0928   7.1449   7.2447   7.3320   7.4682   7.7402   7.8327   8.2043
     8.4427   8.9435   9.4275   9.4804   9.7886   9.8056  10.0761  10.3767
    11.4084  11.4182  11.4471  11.6680  11.6786  11.9576  12.2902  13.3305
    13.4022  14.1636  16.4419  16.9985  17.4260  17.9318

     occupation numbers 
     0.0625   0.0625   0.0625   0.0625   0.0625   0.0625   0.0625   0.0625
     0.0625   0.0625   0.0625   0.0625   0.0625   0.0625   0.0625   0.0625
     0.0625   0.0625   0.0625   0.0625   0.0625   0.0625   0.0625   0.0625
     0.0625   0.0625   0.0625   0.0625   0.0625   0.0625   0.0625   0.0625
     0.0622   0.0622   0.0621   0.0599   0.0597   0.0481   0.0212   0.0000
     0.0000   0.0000   0.0000   0.0000   0.0000   0.0000

          k = 0.4942-0.2853-0.4107 (  2202 PWs)   bands (ev):

   -19.7278 -19.6711  -7.1487  -6.4399  -6.2267  -5.9279  -5.5042  -5.2543
    -3.1779  -3.1172  -3.0284  -2.6408  -2.4697  -2.2115   5.8244   6.3232
     6.4688   6.9351   7.1599   7.2683   7.9015   7.9272   8.1648   8.3165
     8.5907   8.6112   8.6392   9.4181   9.6801  10.0441  10.0845  10.4534
    10.6574  11.3029  11.5727  11.7613  11.8675  11.9767  12.0741  12.4628
    13.3302  14.8060  17.0464  17.2705  17.5264  17.6118

     occupation numbers 
     0.0313   0.0313   0.0313   0.0313   0.0313   0.0313   0.0313   0.0313
     0.0313   0.0313   0.0313   0.0313   0.0313   0.0313   0.0313   0.0313
     0.0313   0.0313   0.0313   0.0313   0.0313   0.0313   0.0313   0.0313
     0.0313   0.0313   0.0313   0.0313   0.0313   0.0312   0.0312   0.0312
     0.0312   0.0312   0.0306   0.0288   0.0267   0.0234   0.0197   0.0049
     0.0000   0.0000   0.0000   0.0000   0.0000   0.0000

          k = 0.0000 0.0000 0.3080 (  2187 PWs)   bands (ev):

   -19.7656 -19.6433  -6.5967  -5.9593  -5.9020  -5.8950  -5.8154  -5.8076
    -3.1848  -3.0898  -3.0885  -2.9581  -2.8843  -2.8832   5.6106   7.0336
     7.0388   7.1471   7.4450   7.4504   7.5278   7.8584   7.8608   8.8710
     8.8739   9.4428   9.4496   9.6705   9.6757   9.8866  10.1439  10.1486
    11.1587  11.1590  11.2232  11.9002  11.9006  12.0128  12.3428  12.3437
    14.2829  14.2842  15.9147  15.9156  16.8819  17.4856

     occupation numbers 
     0.0625   0.0625   0.0625   0.0625   0.0625   0.0625   0.0625   0.0625
     0.0625   0.0625   0.0625   0.0625   0.0625   0.0625   0.0625   0.0625
     0.0625   0.0625   0.0625   0.0625   0.0625   0.0625   0.0625   0.0625
     0.0625   0.0625   0.0625   0.0625   0.0625   0.0625   0.0625   0.0625
     0.0625   0.0625   0.0625   0.0516   0.0516   0.0442   0.0172   0.0171
     0.0000   0.0000   0.0000   0.0000   0.0000   0.0000

          k = 0.7412 0.4280 0.0000 (  2204 PWs)   bands (ev):

   -19.7307 -19.6731  -6.7145  -6.5792  -6.1245  -5.8073  -5.6464  -5.5157
    -3.1534  -3.0756  -3.0345  -2.6639  -2.6423  -2.5698   5.9401   6.5153
     7.1075   7.2140   7.2404   7.3511   7.4624   7.6763   8.0176   8.1556
     8.4656   8.8552   9.4827   9.5049   9.6228   9.6933   9.8686  10.2283
    11.4048  11.4188  11.5160  11.6982  11.7245  11.8900  12.3008  13.2541
    13.3167  14.1886  16.6957  16.7272  17.5942  17.7996

     occupation numbers 
     0.0625   0.0625   0.0625   0.0625   0.0625   0.0625   0.0625   0.0625
     0.0625   0.0625   0.0625   0.0625   0.0625   0.0625   0.0625   0.0625
     0.0625   0.0625   0.0625   0.0625   0.0625   0.0625   0.0625   0.0625
     0.0625   0.0625   0.0625   0.0625   0.0625   0.0625   0.0625   0.0625
     0.0623   0.0622   0.0618   0.0593   0.0587   0.0521   0.0203   0.0000
     0.0000   0.0000   0.0000   0.0000   0.0000   0.0000

          k = 0.4942 0.2853 0.1027 (  2211 PWs)   bands (ev):

   -19.7215 -19.6809  -6.9503  -6.5245  -6.3015  -5.6692  -5.6020  -5.3196
    -3.3014  -3.1546  -3.0144  -2.5916  -2.5478  -2.3651   5.9507   6.2587
     6.8478   7.0323   7.2322   7.2963   7.5907   7.8896   7.9925   8.0535
     8.4096   9.0488   9.1775   9.4150   9.5576   9.6886  10.0338  10.3948
    11.1220  11.5839  11.7108  11.7167  11.7763  11.7959  12.2949  12.7645
    13.4786  14.3508  16.8904  16.9393  17.5879  17.9345

     occupation numbers 
     0.0625   0.0625   0.0625   0.0625   0.0625   0.0625   0.0625   0.0625
     0.0625   0.0625   0.0625   0.0625   0.0625   0.0625   0.0625   0.0625
     0.0625   0.0625   0.0625   0.0625   0.0625   0.0625   0.0625   0.0625
     0.0625   0.0625   0.0625   0.0625   0.0625   0.0625   0.0625   0.0625
     0.0625   0.0612   0.0590   0.0589   0.0571   0.0564   0.0208   0.0012
     0.0000   0.0000   0.0000   0.0000   0.0000   0.0000

          k = 0.7412-0.4280-0.3080 (  2210 PWs)   bands (ev):

   -19.7208 -19.6805  -6.8908  -6.4305  -6.2808  -5.7720  -5.7265  -5.4519
    -3.0575  -3.0361  -2.9519  -2.7171  -2.6078  -2.4166   6.0156   6.3937
     6.9461   7.0232   7.2820   7.2850   7.6092   7.9068   8.0422   8.0837
     8.3820   9.0211   9.0316   9.5260   9.5565   9.5961   9.6746  10.2341
    11.1784  11.6042  11.6972  11.7063  11.8195  11.8610  12.2533  12.7124
    13.4246  14.3212  17.0661  17.0725  17.5559  17.9090

     occupation numbers 
     0.0625   0.0625   0.0625   0.0625   0.0625   0.0625   0.0625   0.0625
     0.0625   0.0625   0.0625   0.0625   0.0625   0.0625   0.0625   0.0625
     0.0625   0.0625   0.0625   0.0625   0.0625   0.0625   0.0625   0.0625
     0.0625   0.0625   0.0625   0.0625   0.0625   0.0625   0.0625   0.0625
     0.0625   0.0609   0.0593   0.0591   0.0555   0.0536   0.0242   0.0019
     0.0000   0.0000   0.0000   0.0000   0.0000   0.0000

          k = 0.4942-0.5706-0.2053 (  2206 PWs)   bands (ev):

   -19.7000 -19.6999  -6.8684  -6.8559  -6.0196  -6.0096  -5.3963  -5.3895
    -3.1417  -3.1413  -2.7996  -2.7977  -2.3729  -2.3703   6.1007   6.1151
     7.0236   7.0304   7.1579   7.1644   7.4413   7.4482   8.2100   8.2470
     8.8070   8.8140   9.0837   9.0891   9.5613   9.5662  10.1168  10.1201
    11.3923  11.3928  11.5931  11.5934  11.8619  11.8636  12.3267  12.3286
    14.0110  14.0195  17.4342  17.4355  17.8724  17.8741

     occupation numbers 
     0.0625   0.0625   0.0625   0.0625   0.0625   0.0625   0.0625   0.0625
     0.0625   0.0625   0.0625   0.0625   0.0625   0.0625   0.0625   0.0625
     0.0625   0.0625   0.0625   0.0625   0.0625   0.0625   0.0625   0.0625
     0.0625   0.0625   0.0625   0.0625   0.0625   0.0625   0.0625   0.0625
     0.0623   0.0623   0.0611   0.0611   0.0536   0.0535   0.0184   0.0182
     0.0000   0.0000   0.0000   0.0000   0.0000   0.0000

          k = 0.0000 0.0000-0.6160 (  2186 PWs)   bands (ev):

   -19.7022 -19.7015  -6.4973  -6.4798  -5.9155  -5.9143  -5.9121  -5.8999
    -2.8745  -2.8738  -2.8727  -2.8707  -2.7002  -2.6985   6.3136   6.3257
     7.2342   7.2416   7.2550   7.2589   7.8569   7.8850   8.1112   8.1118
     8.1396   8.1400   9.6576   9.6581   9.6666   9.6670   9.7205   9.7325
    11.6111  11.6132  11.6588  11.6598  11.6625  11.6631  13.2434  13.2447
    13.2715  13.2726  17.1215  17.1225  17.1241  17.1247

     occupation numbers 
     0.0313   0.0313   0.0313   0.0313   0.0313   0.0313   0.0313   0.0313
     0.0313   0.0313   0.0313   0.0313   0.0313   0.0313   0.0313   0.0313
     0.0313   0.0313   0.0313   0.0313   0.0313   0.0313   0.0313   0.0313
     0.0313   0.0313   0.0313   0.0313   0.0313   0.0313   0.0313   0.0313
     0.0304   0.0304   0.0301   0.0300   0.0300   0.0300   0.0000   0.0000
     0.0000   0.0000   0.0000   0.0000   0.0000   0.0000

          k =-0.2471 0.1427-0.1027 (  2181 PWs)   bands (ev):

   -19.7658 -19.6435  -6.7089  -6.2682  -5.9098  -5.8194  -5.5843  -5.4511
    -3.5659  -3.3760  -2.9153  -2.8927  -2.8301  -2.7481   5.5571   6.8860
     7.0387   7.0498   7.3483   7.5206   7.5793   7.8281   7.8731   8.6254
     8.7201   9.3554   9.6746   9.8068   9.8609  10.0391  10.3860  10.3985
    11.0422  11.0732  11.1562  11.8872  11.9388  12.0004  12.3622  12.4200
    14.3229  14.3298  15.8210  16.0754  16.9757  17.2710

     occupation numbers 
     0.0625   0.0625   0.0625   0.0625   0.0625   0.0625   0.0625   0.0625
     0.0625   0.0625   0.0625   0.0625   0.0625   0.0625   0.0625   0.0625
     0.0625   0.0625   0.0625   0.0625   0.0625   0.0625   0.0625   0.0625
     0.0625   0.0625   0.0625   0.0625   0.0625   0.0625   0.0625   0.0625
     0.0625   0.0625   0.0625   0.0523   0.0493   0.0451   0.0158   0.0121
     0.0000   0.0000   0.0000   0.0000   0.0000   0.0000

          k = 0.0000 0.2853 0.1027 (  2181 PWs)   bands (ev):

   -19.7658 -19.6435  -6.7089  -6.2681  -5.9091  -5.8208  -5.5847  -5.4502
    -3.5665  -3.3756  -2.9155  -2.8925  -2.8297  -2.7484   5.5575   6.8871
     7.0407   7.0471   7.3473   7.5179   7.5821   7.8296   7.8717   8.6239
     8.7225   9.3538   9.6713   9.8114   9.8597  10.0402  10.3861  10.3978
    11.0421  11.0735  11.1559  11.8870  11.9387  12.0004  12.3614  12.4208
    14.3219  14.3307  15.8205  16.0763  16.9759  17.2716

     occupation numbers 
     0.0625   0.0625   0.0625   0.0625   0.0625   0.0625   0.0625   0.0625
     0.0625   0.0625   0.0625   0.0625   0.0625   0.0625   0.0625   0.0625
     0.0625   0.0625   0.0625   0.0625   0.0625   0.0625   0.0625   0.0625
     0.0625   0.0625   0.0625   0.0625   0.0625   0.0625   0.0625   0.0625
     0.0625   0.0625   0.0625   0.0523   0.0493   0.0451   0.0159   0.0120
     0.0000   0.0000   0.0000   0.0000   0.0000   0.0000

          k = 0.4942-0.2853 0.2053 (  2202 PWs)   bands (ev):

   -19.7027 -19.7020  -6.7108  -6.6963  -5.9343  -5.9271  -5.4962  -5.4880
    -3.3651  -3.3623  -2.7742  -2.7720  -2.4987  -2.4961   6.0911   6.1035
     7.2300   7.2460   7.2947   7.3142   7.6631   7.6882   7.9870   8.0121
     8.2020   8.2302   9.5483   9.5510   9.8796   9.8914  10.2913  10.3016
    11.4804  11.4811  11.5597  11.5619  11.7245  11.7287  13.3019  13.3306
    13.3885  13.4176  16.8397  16.8446  17.1368  17.1405

     occupation numbers 
     0.0313   0.0313   0.0313   0.0313   0.0313   0.0313   0.0313   0.0313
     0.0313   0.0313   0.0313   0.0313   0.0313   0.0313   0.0313   0.0313
     0.0313   0.0313   0.0313   0.0313   0.0313   0.0313   0.0313   0.0313
     0.0313   0.0313   0.0313   0.0313   0.0312   0.0312   0.0312   0.0312
     0.0310   0.0310   0.0307   0.0307   0.0293   0.0293   0.0000   0.0000
     0.0000   0.0000   0.0000   0.0000   0.0000   0.0000

          k = 0.0000-0.5706-0.2053 (  2202 PWs)   bands (ev):

   -19.7026 -19.7020  -6.7110  -6.6959  -5.9352  -5.9267  -5.4948  -5.4890
    -3.3660  -3.3619  -2.7732  -2.7726  -2.4990  -2.4960   6.0925   6.1034
     7.2286   7.2480   7.2968   7.3134   7.6621   7.6833   7.9884   8.0154
     8.1994   8.2312   9.5451   9.5503   9.8844   9.8925  10.2904  10.3003
    11.4806  11.4814  11.5598  11.5620  11.7239  11.7285  13.3008  13.3304
    13.3896  13.4177  16.8401  16.8439  17.1377  17.1410

     occupation numbers 
     0.0313   0.0313   0.0313   0.0313   0.0313   0.0313   0.0313   0.0313
     0.0313   0.0313   0.0313   0.0313   0.0313   0.0313   0.0313   0.0313
     0.0313   0.0313   0.0313   0.0313   0.0313   0.0313   0.0313   0.0313
     0.0313   0.0313   0.0313   0.0313   0.0312   0.0312   0.0312   0.0312
     0.0310   0.0310   0.0307   0.0307   0.0293   0.0293   0.0000   0.0000
     0.0000   0.0000   0.0000   0.0000   0.0000   0.0000

          k =-0.2471-0.1427-0.2053 (  2195 PWs)   bands (ev):

   -19.7613 -19.6462  -6.8319  -6.2070  -6.0413  -5.8066  -5.6329  -5.4212
    -3.3922  -3.2515  -3.0847  -2.8737  -2.7967  -2.5490   5.5879   6.8580
     6.9366   7.1229   7.2526   7.4840   7.4953   7.8759   7.8838   8.6926
     8.9190   8.9219   9.3029   9.8067   9.9986  10.1072  10.2096  10.3066
    10.6926  11.3998  11.4254  11.5159  11.9374  12.0040  12.1779  12.7430
    13.6440  14.7931  15.9969  16.1984  17.0398  17.5400

     occupation numbers 
     0.0625   0.0625   0.0625   0.0625   0.0625   0.0625   0.0625   0.0625
     0.0625   0.0625   0.0625   0.0625   0.0625   0.0625   0.0625   0.0625
     0.0625   0.0625   0.0625   0.0625   0.0625   0.0625   0.0625   0.0625
     0.0625   0.0625   0.0625   0.0625   0.0625   0.0625   0.0625   0.0625
     0.0625   0.0623   0.0622   0.0618   0.0494   0.0449   0.0306   0.0015
     0.0000   0.0000   0.0000   0.0000   0.0000   0.0000

          k = 0.0000-0.2853 0.2053 (  2195 PWs)   bands (ev):

   -19.7613 -19.6462  -6.8319  -6.2069  -6.0414  -5.8066  -5.6329  -5.4212
    -3.3922  -3.2515  -3.0847  -2.8737  -2.7967  -2.5490   5.5879   6.8579
     6.9365   7.1229   7.2526   7.4854   7.4938   7.8762   7.8835   8.6926
     8.9172   8.9237   9.3029   9.8067   9.9986  10.1072  10.2096  10.3066
    10.6926  11.3998  11.4254  11.5159  11.9375  12.0040  12.1779  12.7430
    13.6440  14.7931  15.9969  16.1984  17.0398  17.5400

     occupation numbers 
     0.0625   0.0625   0.0625   0.0625   0.0625   0.0625   0.0625   0.0625
     0.0625   0.0625   0.0625   0.0625   0.0625   0.0625   0.0625   0.0625
     0.0625   0.0625   0.0625   0.0625   0.0625   0.0625   0.0625   0.0625
     0.0625   0.0625   0.0625   0.0625   0.0625   0.0625   0.0625   0.0625
     0.0625   0.0623   0.0622   0.0618   0.0494   0.0449   0.0306   0.0015
     0.0000   0.0000   0.0000   0.0000   0.0000   0.0000

          k = 0.4942-0.5706 0.1027 (  2198 PWs)   bands (ev):

   -19.7215 -19.6809  -6.9344  -6.6263  -6.1082  -5.8715  -5.4841  -5.3444
    -3.2885  -3.2405  -2.8645  -2.6930  -2.5154  -2.3719   5.9191   6.2915
     6.8882   7.0428   7.2439   7.3486   7.5727   7.8188   7.9380   8.1147
     8.3687   8.9266   9.1752   9.3644   9.6725   9.8312   9.9821  10.3736
    11.1071  11.5500  11.6372  11.7076  11.8404  11.8617  12.3425  12.7469
    13.4332  14.3690  16.9120  17.1169  17.3170  18.0207

     occupation numbers 
     0.0625   0.0625   0.0625   0.0625   0.0625   0.0625   0.0625   0.0625
     0.0625   0.0625   0.0625   0.0625   0.0625   0.0625   0.0625   0.0625
     0.0625   0.0625   0.0625   0.0625   0.0625   0.0625   0.0625   0.0625
     0.0625   0.0625   0.0625   0.0625   0.0625   0.0625   0.0625   0.0625
     0.0625   0.0615   0.0605   0.0591   0.0546   0.0536   0.0172   0.0014
     0.0000   0.0000   0.0000   0.0000   0.0000   0.0000

          k =-0.7412 0.1427-0.1027 (  2198 PWs)   bands (ev):

   -19.7215 -19.6809  -6.9339  -6.6274  -6.1071  -5.8724  -5.4832  -5.3452
    -3.2878  -3.2406  -2.8643  -2.6940  -2.5148  -2.3723   5.9203   6.2896
     6.8915   7.0425   7.2376   7.3520   7.5722   7.8170   7.9581   8.0911
     8.3755   8.9204   9.1800   9.3658   9.6741   9.8300   9.9823  10.3722
    11.1078  11.5488  11.6364  11.7080  11.8398  11.8628  12.3429  12.7471
    13.4332  14.3692  16.9101  17.1197  17.3165  18.0206

     occupation numbers 
     0.0625   0.0625   0.0625   0.0625   0.0625   0.0625   0.0625   0.0625
     0.0625   0.0625   0.0625   0.0625   0.0625   0.0625   0.0625   0.0625
     0.0625   0.0625   0.0625   0.0625   0.0625   0.0625   0.0625   0.0625
     0.0625   0.0625   0.0625   0.0625   0.0625   0.0625   0.0625   0.0625
     0.0625   0.0615   0.0605   0.0591   0.0546   0.0535   0.0172   0.0014
     0.0000   0.0000   0.0000   0.0000   0.0000   0.0000

          k = 0.2471-0.7133-0.1027 (  2198 PWs)   bands (ev):

   -19.7215 -19.6809  -6.9337  -6.6276  -6.1066  -5.8728  -5.4836  -5.3447
    -3.2878  -3.2407  -2.8641  -2.6944  -2.5148  -2.3721   5.9207   6.2897
     6.8924   7.0413   7.2368   7.3530   7.5725   7.8185   7.9567   8.0899
     8.3761   8.9207   9.1795   9.3645   9.6765   9.8286   9.9831  10.3719
    11.1078  11.5484  11.6367  11.7091  11.8391  11.8624  12.3429  12.7471
    13.4332  14.3692  16.9094  17.1208  17.3165  18.0211

     occupation numbers 
     0.0625   0.0625   0.0625   0.0625   0.0625   0.0625   0.0625   0.0625
     0.0625   0.0625   0.0625   0.0625   0.0625   0.0625   0.0625   0.0625
     0.0625   0.0625   0.0625   0.0625   0.0625   0.0625   0.0625   0.0625
     0.0625   0.0625   0.0625   0.0625   0.0625   0.0625   0.0625   0.0625
     0.0625   0.0615   0.0605   0.0591   0.0546   0.0536   0.0172   0.0014
     0.0000   0.0000   0.0000   0.0000   0.0000   0.0000

          k =-0.7412-0.1427 0.1027 (  2198 PWs)   bands (ev):

   -19.7215 -19.6809  -6.9342  -6.6265  -6.1078  -5.8719  -5.4845  -5.3439
    -3.2886  -3.2406  -2.8643  -2.6934  -2.5154  -2.3717   5.9194   6.2916
     6.8891   7.0416   7.2431   7.3496   7.5730   7.8202   7.9367   8.1136
     8.3693   8.9269   9.1747   9.3631   9.6748   9.8298   9.9829  10.3733
    11.1071  11.5495  11.6374  11.7088  11.8396  11.8613  12.3426  12.7468
    13.4332  14.3690  16.9113  17.1180  17.3171  18.0211

     occupation numbers 
     0.0625   0.0625   0.0625   0.0625   0.0625   0.0625   0.0625   0.0625
     0.0625   0.0625   0.0625   0.0625   0.0625   0.0625   0.0625   0.0625
     0.0625   0.0625   0.0625   0.0625   0.0625   0.0625   0.0625   0.0625
     0.0625   0.0625   0.0625   0.0625   0.0625   0.0625   0.0625   0.0625
     0.0625   0.0615   0.0605   0.0591   0.0546   0.0536   0.0172   0.0014
     0.0000   0.0000   0.0000   0.0000   0.0000   0.0000

          k = 0.2471 0.7133 0.1027 (  2198 PWs)   bands (ev):

   -19.7211 -19.6807  -6.9390  -6.6254  -6.1126  -5.8629  -5.4797  -5.3496
    -3.2890  -3.2407  -2.8637  -2.6943  -2.5159  -2.3732   5.9256   6.2846
     6.8955   7.0459   7.2456   7.3550   7.5686   7.8170   7.9374   8.1154
     8.3643   8.9287   9.1693   9.3613   9.6755   9.8288   9.9810  10.3766
    11.1075  11.5490  11.6373  11.7085  11.8402  11.8600  12.3432  12.7470
    13.4311  14.3700  16.9120  17.1178  17.3173  18.0209

     occupation numbers 
     0.0625   0.0625   0.0625   0.0625   0.0625   0.0625   0.0625   0.0625
     0.0625   0.0625   0.0625   0.0625   0.0625   0.0625   0.0625   0.0625
     0.0625   0.0625   0.0625   0.0625   0.0625   0.0625   0.0625   0.0625
     0.0625   0.0625   0.0625   0.0625   0.0625   0.0625   0.0625   0.0625
     0.0625   0.0615   0.0605   0.0591   0.0546   0.0537   0.0172   0.0014
     0.0000   0.0000   0.0000   0.0000   0.0000   0.0000

          k = 0.2471-0.4280 0.0000 (  2203 PWs)   bands (ev):

   -19.7309 -19.6733  -6.8294  -6.6155  -6.0333  -5.9519  -5.4062  -5.3354
    -3.4932  -3.2827  -2.7880  -2.6989  -2.5546  -2.5434   5.8998   6.3329
     7.0957   7.1441   7.2397   7.3296   7.4730   7.7360   7.8356   8.1997
     8.4377   8.9497   9.4349   9.4838   9.7852   9.8053  10.0764  10.3752
    11.4073  11.4175  11.4468  11.6673  11.6782  11.9594  12.2905  13.3296
    13.4012  14.1652  16.4422  16.9976  17.4250  17.9326

     occupation numbers 
     0.0625   0.0625   0.0625   0.0625   0.0625   0.0625   0.0625   0.0625
     0.0625   0.0625   0.0625   0.0625   0.0625   0.0625   0.0625   0.0625
     0.0625   0.0625   0.0625   0.0625   0.0625   0.0625   0.0625   0.0625
     0.0625   0.0625   0.0625   0.0625   0.0625   0.0625   0.0625   0.0625
     0.0622   0.0622   0.0621   0.0600   0.0597   0.0480   0.0212   0.0000
     0.0000   0.0000   0.0000   0.0000   0.0000   0.0000

          k =-0.4942 0.0000 0.0000 (  2203 PWs)   bands (ev):

   -19.7309 -19.6733  -6.8294  -6.6155  -6.0334  -5.9519  -5.4062  -5.3354
    -3.4932  -3.2827  -2.7880  -2.6989  -2.5547  -2.5433   5.8998   6.3329
     7.0957   7.1438   7.2405   7.3291   7.4730   7.7360   7.8357   8.1997
     8.4377   8.9498   9.4349   9.4838   9.7851   9.8055  10.0764  10.3752
    11.4072  11.4175  11.4468  11.6672  11.6782  11.9594  12.2905  13.3296
    13.4012  14.1652  16.4422  16.9976  17.4250  17.9318

     occupation numbers 
     0.0625   0.0625   0.0625   0.0625   0.0625   0.0625   0.0625   0.0625
     0.0625   0.0625   0.0625   0.0625   0.0625   0.0625   0.0625   0.0625
     0.0625   0.0625   0.0625   0.0625   0.0625   0.0625   0.0625   0.0625
     0.0625   0.0625   0.0625   0.0625   0.0625   0.0625   0.0625   0.0625
     0.0622   0.0622   0.0621   0.0600   0.0597   0.0480   0.0212   0.0000
     0.0000   0.0000   0.0000   0.0000   0.0000   0.0000

          k = 0.4942 0.2853 0.4107 (  2202 PWs)   bands (ev):

   -19.7285 -19.6716  -7.1432  -6.4377  -6.2210  -5.9389  -5.5121  -5.2484
    -3.1775  -3.1168  -3.0282  -2.6389  -2.4685  -2.2098   5.8161   6.3339
     6.4611   6.9315   7.1534   7.2610   7.8948   7.9236   8.1641   8.3273
     8.5996   8.6029   8.6482   9.4284   9.6827  10.0445  10.0812  10.4494
    10.6577  11.3029  11.5734  11.7606  11.8669  11.9789  12.0735  12.4628
    13.3326  14.8050  17.0459  17.2702  17.5252  17.6109

     occupation numbers 
     0.0313   0.0313   0.0313   0.0313   0.0313   0.0313   0.0313   0.0313
     0.0313   0.0313   0.0313   0.0313   0.0313   0.0313   0.0313   0.0313
     0.0313   0.0313   0.0313   0.0313   0.0313   0.0313   0.0313   0.0313
     0.0313   0.0313   0.0313   0.0313   0.0313   0.0312   0.0312   0.0312
     0.0312   0.0312   0.0306   0.0288   0.0267   0.0233   0.0197   0.0049
     0.0000   0.0000   0.0000   0.0000   0.0000   0.0000

          k = 0.0000 0.5706-0.4107 (  2202 PWs)   bands (ev):

   -19.7285 -19.6716  -7.1432  -6.4377  -6.2211  -5.9389  -5.5121  -5.2484
    -3.1775  -3.1168  -3.0282  -2.6389  -2.4685  -2.2098   5.8161   6.3339
     6.4611   6.9315   7.1534   7.2610   7.8954   7.9230   8.1640   8.3274
     8.5996   8.6029   8.6482   9.4284   9.6827  10.0445  10.0813  10.4494
    10.6577  11.3029  11.5734  11.7606  11.8669  11.9789  12.0735  12.4628
    13.3326  14.8050  17.0459  17.2701  17.5252  17.6109

     occupation numbers 
     0.0313   0.0313   0.0313   0.0313   0.0313   0.0313   0.0313   0.0313
     0.0313   0.0313   0.0313   0.0313   0.0313   0.0313   0.0313   0.0313
     0.0313   0.0313   0.0313   0.0313   0.0313   0.0313   0.0313   0.0313
     0.0313   0.0313   0.0313   0.0313   0.0313   0.0312   0.0312   0.0312
     0.0312   0.0312   0.0306   0.0288   0.0267   0.0233   0.0197   0.0049
     0.0000   0.0000   0.0000   0.0000   0.0000   0.0000

          k = 0.7412-0.4280 0.0000 (  2204 PWs)   bands (ev):

   -19.7308 -19.6731  -6.7123  -6.5835  -6.1220  -5.8054  -5.6437  -5.5210
    -3.1541  -3.0755  -3.0345  -2.6628  -2.6411  -2.5710   5.9337   6.5198
     7.1060   7.2148   7.2446   7.3525   7.4573   7.6792   8.0179   8.1602
     8.4705   8.8482   9.4812   9.4975   9.6234   9.6939   9.8687  10.2304
    11.4058  11.4196  11.5164  11.6985  11.7253  11.8889  12.3003  13.2550
    13.3177  14.1870  16.6950  16.7277  17.5949  17.7997

     occupation numbers 
     0.0625   0.0625   0.0625   0.0625   0.0625   0.0625   0.0625   0.0625
     0.0625   0.0625   0.0625   0.0625   0.0625   0.0625   0.0625   0.0625
     0.0625   0.0625   0.0625   0.0625   0.0625   0.0625   0.0625   0.0625
     0.0625   0.0625   0.0625   0.0625   0.0625   0.0625   0.0625   0.0625
     0.0622   0.0622   0.0618   0.0593   0.0587   0.0522   0.0204   0.0000
     0.0000   0.0000   0.0000   0.0000   0.0000   0.0000

          k = 0.0000-0.8559 0.0000 (  2204 PWs)   bands (ev):

   -19.7307 -19.6731  -6.7145  -6.5792  -6.1245  -5.8072  -5.6464  -5.5157
    -3.1534  -3.0756  -3.0345  -2.6639  -2.6423  -2.5698   5.9401   6.5153
     7.1077   7.2135   7.2405   7.3515   7.4624   7.6763   8.0176   8.1555
     8.4656   8.8552   9.4828   9.5049   9.6226   9.6935   9.8686  10.2283
    11.4048  11.4187  11.5160  11.6982  11.7245  11.8900  12.3008  13.2541
    13.3167  14.1886  16.6957  16.7272  17.5942  17.7996

     occupation numbers 
     0.0625   0.0625   0.0625   0.0625   0.0625   0.0625   0.0625   0.0625
     0.0625   0.0625   0.0625   0.0625   0.0625   0.0625   0.0625   0.0625
     0.0625   0.0625   0.0625   0.0625   0.0625   0.0625   0.0625   0.0625
     0.0625   0.0625   0.0625   0.0625   0.0625   0.0625   0.0625   0.0625
     0.0622   0.0622   0.0618   0.0593   0.0587   0.0521   0.0203   0.0000
     0.0000   0.0000   0.0000   0.0000   0.0000   0.0000

          k = 0.4942-0.2853-0.1027 (  2211 PWs)   bands (ev):

   -19.7211 -19.6807  -6.9548  -6.5236  -6.3023  -5.6663  -5.5962  -5.3242
    -3.3014  -3.1546  -3.0145  -2.5925  -2.5479  -2.3665   5.9569   6.2514
     6.8544   7.0357   7.2359   7.2990   7.5886   7.8879   7.9941   8.0514
     8.4057   9.0523   9.1724   9.4166   9.5593   9.6804  10.0328  10.3987
    11.1226  11.5835  11.7098  11.7163  11.7769  11.7957  12.2955  12.7646
    13.4766  14.3518  16.8906  16.9391  17.5877  17.9346

     occupation numbers 
     0.0625   0.0625   0.0625   0.0625   0.0625   0.0625   0.0625   0.0625
     0.0625   0.0625   0.0625   0.0625   0.0625   0.0625   0.0625   0.0625
     0.0625   0.0625   0.0625   0.0625   0.0625   0.0625   0.0625   0.0625
     0.0625   0.0625   0.0625   0.0625   0.0625   0.0625   0.0625   0.0625
     0.0625   0.0612   0.0590   0.0589   0.0571   0.0564   0.0208   0.0012
     0.0000   0.0000   0.0000   0.0000   0.0000   0.0000

          k = 0.0000-0.5706 0.1027 (  2211 PWs)   bands (ev):

   -19.7215 -19.6809  -6.9503  -6.5245  -6.3016  -5.6693  -5.6019  -5.3196
    -3.3014  -3.1546  -3.0144  -2.5917  -2.5478  -2.3651   5.9508   6.2587
     6.8478   7.0323   7.2321   7.2965   7.5907   7.8899   7.9924   8.0532
     8.4098   9.0488   9.1775   9.4150   9.5576   9.6886  10.0338  10.3948
    11.1220  11.5838  11.7108  11.7167  11.7763  11.7959  12.2949  12.7645
    13.4786  14.3508  16.8904  16.9393  17.5879  17.9345

     occupation numbers 
     0.0625   0.0625   0.0625   0.0625   0.0625   0.0625   0.0625   0.0625
     0.0625   0.0625   0.0625   0.0625   0.0625   0.0625   0.0625   0.0625
     0.0625   0.0625   0.0625   0.0625   0.0625   0.0625   0.0625   0.0625
     0.0625   0.0625   0.0625   0.0625   0.0625   0.0625   0.0625   0.0625
     0.0625   0.0612   0.0590   0.0589   0.0571   0.0564   0.0208   0.0012
     0.0000   0.0000   0.0000   0.0000   0.0000   0.0000

          k = 0.7412 0.4280 0.3080 (  2210 PWs)   bands (ev):

   -19.7212 -19.6807  -6.8859  -6.4314  -6.2792  -5.7772  -5.7321  -5.4464
    -3.0572  -3.0363  -2.9525  -2.7159  -2.6072  -2.4152   6.0088   6.4025
     6.9392   7.0195   7.2767   7.2817   7.6129   7.9096   8.0399   8.0843
     8.3861   9.0187   9.0357   9.5317   9.5561   9.5981   9.6744  10.2300
    11.1779  11.6052  11.6965  11.7068  11.8201  11.8611  12.2528  12.7123
    13.4266  14.3202  17.0656  17.0725  17.5563  17.9088

     occupation numbers 
     0.0625   0.0625   0.0625   0.0625   0.0625   0.0625   0.0625   0.0625
     0.0625   0.0625   0.0625   0.0625   0.0625   0.0625   0.0625   0.0625
     0.0625   0.0625   0.0625   0.0625   0.0625   0.0625   0.0625   0.0625
     0.0625   0.0625   0.0625   0.0625   0.0625   0.0625   0.0625   0.0625
     0.0625   0.0609   0.0594   0.0591   0.0555   0.0536   0.0242   0.0019
     0.0000   0.0000   0.0000   0.0000   0.0000   0.0000

          k = 0.0000 0.8559-0.3080 (  2210 PWs)   bands (ev):

   -19.7212 -19.6807  -6.8859  -6.4315  -6.2791  -5.7772  -5.7321  -5.4464
    -3.0572  -3.0363  -2.9525  -2.7159  -2.6071  -2.4153   6.0088   6.4025
     6.9391   7.0195   7.2775   7.2809   7.6129   7.9095   8.0386   8.0859
     8.3859   9.0184   9.0360   9.5318   9.5561   9.5982   9.6743  10.2301
    11.1779  11.6052  11.6966  11.7067  11.8201  11.8611  12.2528  12.7123
    13.4266  14.3202  17.0656  17.0725  17.5563  17.9088

     occupation numbers 
     0.0625   0.0625   0.0625   0.0625   0.0625   0.0625   0.0625   0.0625
     0.0625   0.0625   0.0625   0.0625   0.0625   0.0625   0.0625   0.0625
     0.0625   0.0625   0.0625   0.0625   0.0625   0.0625   0.0625   0.0625
     0.0625   0.0625   0.0625   0.0625   0.0625   0.0625   0.0625   0.0625
     0.0625   0.0609   0.0594   0.0591   0.0555   0.0536   0.0242   0.0019
     0.0000   0.0000   0.0000   0.0000   0.0000   0.0000

          k = 0.2471 0.7133-0.2053 (  2206 PWs)   bands (ev):

   -19.7000 -19.6999  -6.8685  -6.8557  -6.0198  -6.0093  -5.3963  -5.3895
    -3.1417  -3.1413  -2.7996  -2.7978  -2.3731  -2.3700   6.1007   6.1150
     7.0244   7.0295   7.1577   7.1646   7.4417   7.4478   8.2103   8.2466
     8.8070   8.8141   9.0837   9.0890   9.5601   9.5674  10.1163  10.1206
    11.3923  11.3928  11.5929  11.5936  11.8618  11.8637  12.3266  12.3287
    14.0110  14.0195  17.4345  17.4352  17.8717  17.8748

     occupation numbers 
     0.0625   0.0625   0.0625   0.0625   0.0625   0.0625   0.0625   0.0625
     0.0625   0.0625   0.0625   0.0625   0.0625   0.0625   0.0625   0.0625
     0.0625   0.0625   0.0625   0.0625   0.0625   0.0625   0.0625   0.0625
     0.0625   0.0625   0.0625   0.0625   0.0625   0.0625   0.0625   0.0625
     0.0623   0.0623   0.0611   0.0611   0.0536   0.0535   0.0184   0.0182
     0.0000   0.0000   0.0000   0.0000   0.0000   0.0000

          k =-0.7412-0.1427-0.2053 (  2206 PWs)   bands (ev):

   -19.7003 -19.7002  -6.8669  -6.8511  -6.0197  -6.0182  -5.3968  -5.3860
    -3.1415  -3.1407  -2.7998  -2.7989  -2.3727  -2.3674   6.1025   6.1157
     7.0211   7.0246   7.1486   7.1630   7.4410   7.4423   8.2153   8.2507
     8.8152   8.8162   9.0854   9.0863   9.5667   9.5701  10.1149  10.1160
    11.3909  11.3914  11.5929  11.5935  11.8635  11.8638  12.3264  12.3286
    14.0113  14.0199  17.4349  17.4354  17.8715  17.8738

     occupation numbers 
     0.0625   0.0625   0.0625   0.0625   0.0625   0.0625   0.0625   0.0625
     0.0625   0.0625   0.0625   0.0625   0.0625   0.0625   0.0625   0.0625
     0.0625   0.0625   0.0625   0.0625   0.0625   0.0625   0.0625   0.0625
     0.0625   0.0625   0.0625   0.0625   0.0625   0.0625   0.0625   0.0625
     0.0623   0.0623   0.0611   0.0611   0.0535   0.0535   0.0184   0.0182
     0.0000   0.0000   0.0000   0.0000   0.0000   0.0000

     the Fermi energy is    12.1702 ev

!    total energy              =    -538.35303285 Ry
     Harris-Foulkes estimate   =    -538.35303285 Ry
     estimated scf accuracy    <          4.1E-09 Ry

     The total energy is the sum of the following terms:

     one-electron contribution =     -32.89376283 Ry
     hartree contribution      =      83.60525675 Ry
     xc contribution           =    -199.55542005 Ry
     ewald contribution        =    -389.44315552 Ry
     Hubbard energy            =      -0.01997844 Ry
     smearing contrib. (-TS)   =      -0.04597275 Ry

     convergence has been achieved in   7 iterations

     init_run     :      6.85s CPU      6.94s WALL (       1 calls)
     electrons    :    219.08s CPU    220.59s WALL (       1 calls)

     Called by init_run:
     wfcinit      :      0.00s CPU      0.00s WALL (       1 calls)
     potinit      :      0.28s CPU      0.30s WALL (       1 calls)

     Called by electrons:
     c_bands      :    170.58s CPU    171.35s WALL (       7 calls)
     sum_band     :     35.06s CPU     35.37s WALL (       7 calls)
     v_of_rho     :      1.95s CPU      1.96s WALL (       8 calls)
     v_h          :      0.10s CPU      0.10s WALL (       8 calls)
     v_xc         :      1.85s CPU      1.86s WALL (       8 calls)
     newd         :     12.83s CPU     12.86s WALL (       8 calls)
     mix_rho      :      0.15s CPU      0.15s WALL (       7 calls)

     Called by c_bands:
     init_us_2    :      1.76s CPU      1.76s WALL (     504 calls)
     cegterg      :    165.58s CPU    165.99s WALL (     252 calls)

     Called by sum_band:
     sum_band:bec :      0.17s CPU      0.19s WALL (     252 calls)
     addusdens    :      7.75s CPU      7.76s WALL (       7 calls)

     Called by *egterg:
     h_psi        :    119.96s CPU    120.34s WALL (    1233 calls)
     s_psi        :      7.16s CPU      7.16s WALL (    1233 calls)
     g_psi        :      0.58s CPU      0.60s WALL (     981 calls)
     cdiaghg      :     14.71s CPU     14.72s WALL (    1197 calls)
     cegterg:over :      8.63s CPU      8.62s WALL (     981 calls)
     cegterg:upda :      5.74s CPU      5.74s WALL (     981 calls)
     cegterg:last :      3.90s CPU      3.91s WALL (     288 calls)

     Called by h_psi:
     h_psi:vloc   :     96.78s CPU     97.13s WALL (    1233 calls)
     h_psi:vnl    :     14.89s CPU     14.89s WALL (    1233 calls)
     add_vuspsi   :      7.19s CPU      7.19s WALL (    1233 calls)
     vhpsi        :      8.02s CPU      8.03s WALL (    1233 calls)

     General routines
     calbec       :     15.91s CPU     15.92s WALL (    2970 calls)
     fft          :      1.21s CPU      1.23s WALL (     123 calls)
     ffts         :      0.04s CPU      0.04s WALL (      15 calls)
     fftw         :     93.09s CPU     93.66s WALL (   70764 calls)
     interpolate  :      0.21s CPU      0.21s WALL (      15 calls)
     davcio       :      0.00s CPU      0.54s WALL (     540 calls)

     Parallel routines
     fft_scatter  :     22.44s CPU     22.94s WALL (   70902 calls)
     Hubbard U routines
     new_ns       :      1.64s CPU      1.86s WALL (       7 calls)
     vhpsi        :      8.02s CPU      8.03s WALL (    1233 calls)

     PWSCF        :  3m46.40s CPU     3m48.14s WALL


   This run was terminated on:   8: 8:20  11Nov2012            

=------------------------------------------------------------------------------=
