   JOB DONE.
=------------------------------------------------------------------------------=

     Program PWSCF v.5.0.1 starts on 11Nov2012 at  8:11: 6 

     This program is part of the open-source Quantum ESPRESSO suite
     for quantum simulation of materials; please cite
         "P. Giannozzi et al., J. Phys.:Condens. Matter 21 395502 (2009);
          URL http://www.quantum-espresso.org", 
     in publications or presentations arising from this work. More details at
     http://www.quantum-espresso.org/quote.php

     Parallel version (MPI), running on     2 processors
     R & G space division:  proc/pool =    2

     Current dimensions of program PWSCF are:
     Max number of different atomic species (ntypx) = 10
     Max number of k-points (npk) =  40000
     Max angular momentum in pseudopotentials (lmaxx) =  3
     Reading input from CoLaO_U0_a5.in
               file Co.pbe-nd-rrkjus.UPF: wavefunction(s)  4S 3D renormalized
               file O.pbe-rrkjus.UPF: wavefunction(s)  2S renormalized
               file O.pbe-rrkjus.UPF: wavefunction(s)  2S renormalized

     Subspace diagonalization in iterative solution of the eigenvalue problem:
     a serial algorithm will be used


     Parallelization info
     --------------------
     sticks:   dense  smooth     PW     G-vecs:    dense   smooth      PW
     Min        1112     444    131                34808     8786    1448
     Max        1113     445    132                34809     8787    1449
     Sum        2225     889    263                69617    17573    2897


     Title: 
     GGA + U, U = 1D-40, alpha = 0.050                                          


     bravais-lattice index     =            5
     lattice parameter (alat)  =      10.3292  a.u.
     unit-cell volume          =     793.0599 (a.u.)^3
     number of atoms/cell      =           10
     number of atomic types    =            4
     number of electrons       =        76.00
     number of Kohn-Sham states=           46
     kinetic-energy cutoff     =      30.0000  Ry
     charge density cutoff     =     300.0000  Ry
     convergence threshold     =      1.0E-08
     mixing beta               =       0.2000
     number of iterations used =            8  plain     mixing
     Exchange-correlation      =  SLA  PW   PBE  PBE ( 1 4 3 4 0)
     EXX-fraction              =        0.00

     celldm(1)=  10.329242  celldm(2)=   0.000000  celldm(3)=   0.000000
     celldm(4)=   0.488100  celldm(5)=   0.000000  celldm(6)=   0.000000

     crystal axes: (cart. coord. in units of alat)
               a(1) = (   0.505915  -0.292090   0.811624 )  
               a(2) = (   0.000000   0.584180   0.811624 )  
               a(3) = (  -0.505915  -0.292090   0.811624 )  

     reciprocal axes: (cart. coord. in units 2 pi/alat)
               b(1) = (  0.988308 -0.570600  0.410699 )  
               b(2) = (  0.000000  1.141200  0.410699 )  
               b(3) = ( -0.988308 -0.570600  0.410699 )  


     PseudoPot. # 1 for Co read from file:
     /home/mcurnan/dft-course/Project1/example_LaCoO3/Co.pbe-nd-rrkjus.UPF
     MD5 check sum: 3e47a84addf5e975e0edeaeee2a73f59
     Pseudo is Ultrasoft + core correction, Zval =  9.0
     Generated by new atomic code, or converted to UPF format
     Using radial grid of  961 points,  6 beta functions with: 
                l(1) =   0
                l(2) =   0
                l(3) =   1
                l(4) =   1
                l(5) =   2
                l(6) =   2
     Q(r) pseudized with 0 coefficients 


     PseudoPot. # 2 for La read from file:
     /home/mcurnan/dft-course/Project1/example_LaCoO3/La.pbe-nsp-van.UPF
     MD5 check sum: b2f11743f52dde65f77d1302becd7929
     Pseudo is Ultrasoft + core correction, Zval = 11.0
     Generated by new atomic code, or converted to UPF format
     Using radial grid of  907 points,  6 beta functions with: 
                l(1) =   0
                l(2) =   0
                l(3) =   1
                l(4) =   1
                l(5) =   2
                l(6) =   2
     Q(r) pseudized with  6 coefficients,  rinner =    1.200   1.200   1.200
                                                       1.200   1.200

     PseudoPot. # 3 for O  read from file:
     /home/mcurnan/dft-course/Project1/example_LaCoO3/O.pbe-rrkjus.UPF
     MD5 check sum: 390ba29e75625707450f3bd3f0eb6be9
     Pseudo is Ultrasoft, Zval =  6.0
     Generated by new atomic code, or converted to UPF format
     Using radial grid of 1269 points,  4 beta functions with: 
                l(1) =   0
                l(2) =   0
                l(3) =   1
                l(4) =   1
     Q(r) pseudized with 0 coefficients 


     PseudoPot. # 4 for O  read from file:
     /home/mcurnan/dft-course/Project1/example_LaCoO3/O.pbe-rrkjus.UPF
     MD5 check sum: 390ba29e75625707450f3bd3f0eb6be9
     Pseudo is Ultrasoft, Zval =  6.0
     Generated by new atomic code, or converted to UPF format
     Using radial grid of 1269 points,  4 beta functions with: 
                l(1) =   0
                l(2) =   0
                l(3) =   1
                l(4) =   1
     Q(r) pseudized with 0 coefficients 


     atomic species   valence    mass     pseudopotential
        Co1            9.00     1.00000     Co( 1.00)
        La1           11.00     1.00000     La( 1.00)
        O1             6.00     1.00000     O ( 1.00)
        O2             6.00     1.00000     O ( 1.00)
 -----
     simplified LDA+U calculation, Hubbard_lmax = 2
     atomic species  L   Hubbard U  Hubbard alpha
        Co1          2    0.000000    0.000000
        La1          2    0.000000    0.000000
        O1           1    0.000000    0.050000
        O2           1    0.000000    0.000000
 -----

     No symmetry found


                                    s                        frac. trans.

      isym =  1     identity                                     

 cryst.   s( 1) = (     1          0          0      )
                  (     0          1          0      )
                  (     0          0          1      )

 cart.    s( 1) = (  1.0000000  0.0000000  0.0000000 )
                  (  0.0000000  1.0000000  0.0000000 )
                  (  0.0000000  0.0000000  1.0000000 )


     point group C_1 (1)    
     there are  1 classes
     the character table:

       E    
A      1.00

     the symmetry operations in each class:
     E        1

   Cartesian axes

     site n.     atom                  positions (alat units)
         1           Co1 tau(   1) = (   0.2228050  -0.1992639   1.0141240  )
         2           Co1 tau(   2) = (  -0.2831100   0.0928263   1.4199360  )
         3           La1 tau(   3) = (  -0.2831100   0.0928263   0.8112181  )
         4           La1 tau(   4) = (   0.2228050   0.3849164   1.2170300  )
         5           O1  tau(   5) = (   0.0000000   0.0000000   0.0000000  )
         6           O2  tau(   6) = (   0.0008601   0.1861491   1.6232478  )
         7           O2  tau(   7) = (   0.1616398   0.0923297   0.8116239  )
         8           O2  tau(   8) = (  -0.0603051  -0.1064377   1.2166242  )
         9           O2  tau(   9) = (   0.4447499  -0.0004966   1.2166242  )
        10           O2  tau(  10) = (  -0.2219449   0.3854130   1.2166242  )

   Crystallographic axes

     site n.     atom                  positions (cryst. coord.)
         1           Co1 tau(   1) = (  0.7504000  0.1891000  0.3100000  )
         2           Co1 tau(   2) = (  0.2504000  0.6891000  0.8100000  )
         3           La1 tau(   3) = (  0.0004000  0.4391000  0.5600000  )
         4           La1 tau(   4) = (  0.5004000  0.9391000  0.0600000  )
         5           O1  tau(   5) = (  0.0000000  0.0000000  0.0000000  )
         6           O2  tau(   6) = (  0.5613000  0.8791000  0.5596000  )
         7           O2  tau(   7) = (  0.4404000  0.4387000  0.1209000  )
         8           O2  tau(   8) = (  0.5008000  0.3782000  0.6200000  )
         9           O2  tau(   9) = (  0.9395000  0.4991000  0.0604000  )
        10           O2  tau(  10) = (  0.0604000  0.9395000  0.4991000  )

     number of k points=    36  gaussian smearing, width (Ry)=  0.0300
                       cart. coord. in units 2pi/alat
        k(    1) = (   0.0000000   0.0000000   0.0000000), wk =   0.0312500
        k(    2) = (  -0.2470771  -0.1426500   0.1026748), wk =   0.0625000
        k(    3) = (   0.4941541   0.2853000  -0.2053496), wk =   0.0312500
        k(    4) = (  -0.2470771   0.1426500   0.2053496), wk =   0.0625000
        k(    5) = (   0.4941541   0.5706001  -0.1026748), wk =   0.0625000
        k(    6) = (   0.2470771   0.4279500   0.0000000), wk =   0.0625000
        k(    7) = (   0.4941541  -0.2853000  -0.4106993), wk =   0.0312500
        k(    8) = (   0.0000000   0.0000000   0.3080244), wk =   0.0625000
        k(    9) = (   0.7412312   0.4279500   0.0000000), wk =   0.0625000
        k(   10) = (   0.4941541   0.2853000   0.1026748), wk =   0.0625000
        k(   11) = (   0.7412312  -0.4279500  -0.3080244), wk =   0.0625000
        k(   12) = (   0.4941541  -0.5706001  -0.2053496), wk =   0.0625000
        k(   13) = (   0.0000000   0.0000000  -0.6160489), wk =   0.0312500
        k(   14) = (  -0.2470771   0.1426500  -0.1026748), wk =   0.0625000
        k(   15) = (   0.0000000   0.2853000   0.1026748), wk =   0.0625000
        k(   16) = (   0.4941541  -0.2853000   0.2053496), wk =   0.0312500
        k(   17) = (   0.0000000  -0.5706001  -0.2053496), wk =   0.0312500
        k(   18) = (  -0.2470771  -0.1426500  -0.2053496), wk =   0.0625000
        k(   19) = (   0.0000000  -0.2853000   0.2053496), wk =   0.0625000
        k(   20) = (   0.4941541  -0.5706001   0.1026748), wk =   0.0625000
        k(   21) = (  -0.7412312   0.1426500  -0.1026748), wk =   0.0625000
        k(   22) = (   0.2470771  -0.7132501  -0.1026748), wk =   0.0625000
        k(   23) = (  -0.7412312  -0.1426500   0.1026748), wk =   0.0625000
        k(   24) = (   0.2470771   0.7132501   0.1026748), wk =   0.0625000
        k(   25) = (   0.2470771  -0.4279500   0.0000000), wk =   0.0625000
        k(   26) = (  -0.4941541   0.0000000   0.0000000), wk =   0.0625000
        k(   27) = (   0.4941541   0.2853000   0.4106993), wk =   0.0312500
        k(   28) = (   0.0000000   0.5706001  -0.4106993), wk =   0.0312500
        k(   29) = (   0.7412312  -0.4279500   0.0000000), wk =   0.0625000
        k(   30) = (   0.0000000  -0.8559001   0.0000000), wk =   0.0625000
        k(   31) = (   0.4941541  -0.2853000  -0.1026748), wk =   0.0625000
        k(   32) = (   0.0000000  -0.5706001   0.1026748), wk =   0.0625000
        k(   33) = (   0.7412312   0.4279500   0.3080244), wk =   0.0625000
        k(   34) = (   0.0000000   0.8559001  -0.3080244), wk =   0.0625000
        k(   35) = (   0.2470771   0.7132501  -0.2053496), wk =   0.0625000
        k(   36) = (  -0.7412312  -0.1426500  -0.2053496), wk =   0.0625000

                       cryst. coord.
        k(    1) = (   0.0000000   0.0000000   0.0000000), wk =   0.0312500
        k(    2) = (   0.0000000   0.0000000   0.2500000), wk =   0.0625000
        k(    3) = (   0.0000000   0.0000000  -0.5000000), wk =   0.0312500
        k(    4) = (   0.0000000   0.2500000   0.2500000), wk =   0.0625000
        k(    5) = (   0.0000000   0.2500000  -0.5000000), wk =   0.0625000
        k(    6) = (   0.0000000   0.2500000  -0.2500000), wk =   0.0625000
        k(    7) = (   0.0000000  -0.5000000  -0.5000000), wk =   0.0312500
        k(    8) = (   0.2500000   0.2500000   0.2500000), wk =   0.0625000
        k(    9) = (   0.2500000   0.2500000  -0.5000000), wk =   0.0625000
        k(   10) = (   0.2500000   0.2500000  -0.2500000), wk =   0.0625000
        k(   11) = (   0.2500000  -0.5000000  -0.5000000), wk =   0.0625000
        k(   12) = (   0.2500000  -0.5000000  -0.2500000), wk =   0.0625000
        k(   13) = (  -0.5000000  -0.5000000  -0.5000000), wk =   0.0312500
        k(   14) = (  -0.2500000   0.0000000   0.0000000), wk =   0.0625000
        k(   15) = (   0.0000000   0.2500000   0.0000000), wk =   0.0625000
        k(   16) = (   0.5000000   0.0000000   0.0000000), wk =   0.0312500
        k(   17) = (   0.0000000  -0.5000000   0.0000000), wk =   0.0312500
        k(   18) = (  -0.2500000  -0.2500000   0.0000000), wk =   0.0625000
        k(   19) = (   0.2500000   0.0000000   0.2500000), wk =   0.0625000
        k(   20) = (   0.5000000  -0.2500000   0.0000000), wk =   0.0625000
        k(   21) = (  -0.5000000   0.0000000   0.2500000), wk =   0.0625000
        k(   22) = (   0.2500000  -0.5000000   0.0000000), wk =   0.0625000
        k(   23) = (  -0.2500000   0.0000000   0.5000000), wk =   0.0625000
        k(   24) = (   0.0000000   0.5000000  -0.2500000), wk =   0.0625000
        k(   25) = (   0.2500000  -0.2500000   0.0000000), wk =   0.0625000
        k(   26) = (  -0.2500000   0.0000000   0.2500000), wk =   0.0625000
        k(   27) = (   0.5000000   0.5000000   0.0000000), wk =   0.0312500
        k(   28) = (  -0.5000000   0.0000000  -0.5000000), wk =   0.0312500
        k(   29) = (   0.5000000  -0.2500000  -0.2500000), wk =   0.0625000
        k(   30) = (   0.2500000  -0.5000000   0.2500000), wk =   0.0625000
        k(   31) = (   0.2500000  -0.2500000  -0.2500000), wk =   0.0625000
        k(   32) = (   0.2500000  -0.2500000   0.2500000), wk =   0.0625000
        k(   33) = (   0.5000000   0.5000000  -0.2500000), wk =   0.0625000
        k(   34) = (  -0.5000000   0.2500000  -0.5000000), wk =   0.0625000
        k(   35) = (  -0.2500000   0.2500000  -0.5000000), wk =   0.0625000
        k(   36) = (  -0.5000000  -0.2500000   0.2500000), wk =   0.0625000

     Dense  grid:    69617 G-vectors     FFT dimensions: (  60,  60,  60)

     Smooth grid:    17573 G-vectors     FFT dimensions: (  40,  40,  40)

     Largest allocated arrays     est. size (Mb)     dimensions
        Kohn-Sham Wavefunctions         0.79 Mb     (   1119,   46)
        Atomic wavefunctions            1.06 Mb     (   1119,   62)
        NL pseudopotentials             2.05 Mb     (   1119,  120)
        Each V/rho on FFT grid          1.65 Mb     ( 108000)
        Each G-vector array             0.27 Mb     (  34808)
        G-vector shells                 0.04 Mb     (   4682)
     Largest temporary arrays     est. size (Mb)     dimensions
        Auxiliary wavefunctions         3.14 Mb     (   1119,  184)
        Each subspace H/S matrix        0.52 Mb     ( 184, 184)
        Each <psi_i|beta_j> matrix      0.08 Mb     (    120,   46)
        Arrays for rho mixing          13.18 Mb     ( 108000,   8)

     Check: negative/imaginary core charge=   -0.000028    0.000000

     The initial density is read from file :
     /home/mcurnan/dft-course/Project1/example_LaCoO3/0/O/alpha/CoLaO_U0.save/charge-density.dat

 --- in v_hubbard ---
Hubbard energy    0.0200
 -------
     Number of +U iterations with fixed ns =  0
     Starting occupations:
 --- enter write_ns ---
 LDA+U parameters:
U( 1)     =  0.00000000
alpha( 1) =  0.00000000
U( 2)     =  0.00000000
alpha( 2) =  0.00000000
U( 3)     =  0.00000000
alpha( 3) =  0.05000000
U( 4)     =  0.00000000
alpha( 4) =  0.00000000
atom    1   Tr[ns(na)] =   8.02205
    eigenvalues: 
  0.596  0.596  0.938  0.941  0.941
    eigenvectors:
  0.000  0.000  1.000  0.000  0.000
  0.057  0.598  0.000  0.178  0.167
  0.598  0.057  0.000  0.167  0.178
  0.210  0.135  0.000  0.095  0.560
  0.135  0.210  0.000  0.560  0.095
    occupations:
  0.938  0.000  0.000  0.000  0.000
  0.000  0.715  0.000 -0.060  0.152
  0.000  0.000  0.715  0.152  0.060
  0.000 -0.060  0.152  0.822  0.000
  0.000  0.152  0.060  0.000  0.822
atom    2   Tr[ns(na)] =   8.02142
    eigenvalues: 
  0.595  0.595  0.938  0.941  0.941
    eigenvectors:
  0.000  0.000  1.000  0.000  0.000
  0.332  0.323  0.000  0.023  0.322
  0.323  0.332  0.000  0.322  0.023
  0.288  0.057  0.000  0.647  0.008
  0.057  0.288  0.000  0.008  0.647
    occupations:
  0.938  0.000  0.000  0.000  0.000
  0.000  0.715  0.000  0.060  0.153
  0.000  0.000  0.715  0.153 -0.060
  0.000  0.060  0.153  0.822  0.000
  0.000  0.153 -0.060  0.000  0.822
atom    3   Tr[ns(na)] =   3.80282
    eigenvalues: 
  0.355  0.355  0.384  0.403  0.403
    eigenvectors:
  0.000  0.000  1.000  0.000  0.000
  0.065  0.856  0.000  0.058  0.021
  0.856  0.065  0.000  0.021  0.058
  0.073  0.006  0.000  0.250  0.670
  0.006  0.073  0.000  0.670  0.250
    occupations:
  0.384  0.000  0.000  0.000  0.000
  0.000  0.359  0.000  0.000  0.013
  0.000  0.000  0.359  0.013  0.000
  0.000  0.000  0.013  0.399  0.000
  0.000  0.013  0.000  0.000  0.399
atom    4   Tr[ns(na)] =   3.80282
    eigenvalues: 
  0.355  0.355  0.384  0.403  0.403
    eigenvectors:
  0.000  0.000  1.000  0.000  0.000
  0.729  0.192  0.000  0.048  0.032
  0.192  0.729  0.000  0.032  0.048
  0.017  0.062  0.000  0.359  0.562
  0.062  0.017  0.000  0.562  0.359
    occupations:
  0.384  0.000  0.000  0.000  0.000
  0.000  0.359  0.000  0.000  0.013
  0.000  0.000  0.359  0.013  0.000
  0.000  0.000  0.013  0.399  0.000
  0.000  0.013  0.000  0.000  0.399
atom    5   Tr[ns(na)] =   5.43357
    eigenvalues: 
  0.846  0.929  0.941
    eigenvectors:
  0.340  0.000  0.660
  0.496  0.250  0.255
  0.164  0.750  0.086
    occupations:
  0.909 -0.039  0.022
 -0.039  0.891  0.022
  0.022  0.022  0.917
atom    6   Tr[ns(na)] =   5.43358
    eigenvalues: 
  0.846  0.929  0.941
    eigenvectors:
  0.340  0.000  0.660
  0.494  0.250  0.256
  0.166  0.750  0.085
    occupations:
  0.909  0.039  0.022
  0.039  0.891 -0.022
  0.022 -0.022  0.917
atom    7   Tr[ns(na)] =   5.43358
    eigenvalues: 
  0.846  0.929  0.941
    eigenvectors:
  0.340  0.000  0.660
  0.000  1.000  0.000
  0.660  0.000  0.340
    occupations:
  0.909  0.000 -0.045
  0.000  0.929  0.000
 -0.045  0.000  0.879
atom    8   Tr[ns(na)] =   5.43357
    eigenvalues: 
  0.846  0.929  0.941
    eigenvectors:
  0.340  0.000  0.660
  0.496  0.250  0.255
  0.164  0.750  0.086
    occupations:
  0.909 -0.039  0.022
 -0.039  0.891  0.022
  0.022  0.022  0.917
atom    9   Tr[ns(na)] =   5.43358
    eigenvalues: 
  0.846  0.929  0.941
    eigenvectors:
  0.340  0.000  0.660
  0.494  0.250  0.256
  0.166  0.750  0.085
    occupations:
  0.909  0.039  0.022
  0.039  0.891 -0.022
  0.022 -0.022  0.917
atom   10   Tr[ns(na)] =   5.43358
    eigenvalues: 
  0.846  0.929  0.941
    eigenvectors:
  0.340  0.000  0.660
  0.000  1.000  0.000
  0.660  0.000  0.340
    occupations:
  0.909  0.000 -0.045
  0.000  0.929  0.000
 -0.045  0.000  0.879
N of occupied +U levels =  56.2505796
 --- exit write_ns ---
 LDA+U Projector read from file 
     Starting wfc from file

     total cpu time spent up to now is        7.6 secs

     per-process dynamical memory:    62.8 Mb

     Self-consistent Calculation

     iteration #  1     ecut=    30.00 Ry     beta=0.20
     Davidson diagonalization with overlap
     c_bands:  1 eigenvalues not converged
     c_bands:  1 eigenvalues not converged
     c_bands:  1 eigenvalues not converged
     c_bands:  1 eigenvalues not converged
     c_bands:  1 eigenvalues not converged
     c_bands:  1 eigenvalues not converged
     c_bands:  1 eigenvalues not converged
     c_bands:  1 eigenvalues not converged
     c_bands:  1 eigenvalues not converged
     c_bands:  1 eigenvalues not converged
     c_bands:  1 eigenvalues not converged
     c_bands:  1 eigenvalues not converged
     c_bands:  1 eigenvalues not converged
     c_bands:  1 eigenvalues not converged
     c_bands:  1 eigenvalues not converged
     c_bands:  1 eigenvalues not converged
     c_bands:  1 eigenvalues not converged
     c_bands:  1 eigenvalues not converged
     c_bands:  1 eigenvalues not converged
     c_bands:  1 eigenvalues not converged
     c_bands:  1 eigenvalues not converged
     c_bands:  1 eigenvalues not converged
     ethr =  1.00E-10,  avg # of iterations = 16.4
 --- enter write_ns ---
 LDA+U parameters:
U( 1)     =  0.00000000
alpha( 1) =  0.00000000
U( 2)     =  0.00000000
alpha( 2) =  0.00000000
U( 3)     =  0.00000000
alpha( 3) =  0.05000000
U( 4)     =  0.00000000
alpha( 4) =  0.00000000
atom    1   Tr[ns(na)] =   8.02447
    eigenvalues: 
  0.596  0.597  0.938  0.941  0.941
    eigenvectors:
  0.000  0.000  0.990  0.000  0.009
  0.101  0.554  0.003  0.128  0.215
  0.554  0.101  0.001  0.217  0.127
  0.174  0.171  0.003  0.173  0.479
  0.171  0.175  0.003  0.481  0.170
    occupations:
  0.938  0.000  0.000  0.000  0.000
  0.000  0.715  0.000 -0.060  0.152
  0.000  0.000  0.715  0.152  0.060
  0.000 -0.060  0.152  0.822  0.000
  0.000  0.152  0.060  0.000  0.822
atom    2   Tr[ns(na)] =   8.02419
    eigenvalues: 
  0.595  0.596  0.938  0.941  0.941
    eigenvectors:
  0.000  0.000  0.992  0.000  0.008
  0.236  0.419  0.002  0.049  0.294
  0.419  0.236  0.001  0.296  0.048
  0.321  0.025  0.000  0.654  0.000
  0.025  0.320  0.005  0.000  0.650
    occupations:
  0.938  0.000  0.000  0.000  0.000
  0.000  0.715  0.000  0.060  0.153
  0.000  0.000  0.715  0.153 -0.060
  0.000  0.060  0.153  0.822  0.000
  0.000  0.153 -0.060  0.000  0.822
atom    3   Tr[ns(na)] =   3.80412
    eigenvalues: 
  0.355  0.356  0.384  0.403  0.403
    eigenvectors:
  0.000  0.000  1.000  0.000  0.000
  0.691  0.231  0.000  0.019  0.060
  0.231  0.690  0.000  0.060  0.019
  0.020  0.058  0.000  0.694  0.227
  0.058  0.020  0.000  0.227  0.695
    occupations:
  0.384  0.000  0.000  0.000  0.000
  0.000  0.359  0.000  0.000  0.013
  0.000  0.000  0.359  0.013  0.000
  0.000  0.000  0.013  0.400  0.000
  0.000  0.013  0.000  0.000  0.400
atom    4   Tr[ns(na)] =   3.80403
    eigenvalues: 
  0.356  0.356  0.384  0.403  0.403
    eigenvectors:
  0.000  0.000  1.000  0.000  0.000
  0.233  0.687  0.000  0.019  0.061
  0.688  0.233  0.000  0.060  0.020
  0.058  0.021  0.000  0.687  0.234
  0.021  0.060  0.000  0.234  0.686
    occupations:
  0.384  0.000  0.000  0.000  0.000
  0.000  0.359  0.000  0.000  0.013
  0.000  0.000  0.359  0.013  0.000
  0.000  0.000  0.013  0.399  0.000
  0.000  0.013  0.000  0.000  0.399
atom    5   Tr[ns(na)] =   5.42577
    eigenvalues: 
  0.844  0.928  0.940
    eigenvectors:
  0.341  0.000  0.659
  0.495  0.250  0.255
  0.164  0.750  0.086
    occupations:
  0.908 -0.039  0.023
 -0.039  0.890  0.022
  0.023  0.022  0.916
atom    6   Tr[ns(na)] =   5.43384
    eigenvalues: 
  0.846  0.929  0.941
    eigenvectors:
  0.340  0.000  0.660
  0.494  0.251  0.255
  0.166  0.749  0.085
    occupations:
  0.909  0.039  0.022
  0.039  0.891 -0.022
  0.022 -0.022  0.917
atom    7   Tr[ns(na)] =   5.43384
    eigenvalues: 
  0.846  0.929  0.941
    eigenvectors:
  0.340  0.000  0.660
  0.000  1.000  0.000
  0.660  0.000  0.340
    occupations:
  0.909  0.000 -0.045
  0.000  0.929  0.000
 -0.045  0.000  0.879
atom    8   Tr[ns(na)] =   5.43385
    eigenvalues: 
  0.846  0.929  0.941
    eigenvectors:
  0.340  0.000  0.660
  0.496  0.250  0.255
  0.164  0.750  0.086
    occupations:
  0.909 -0.039  0.022
 -0.039  0.891  0.022
  0.022  0.022  0.917
atom    9   Tr[ns(na)] =   5.43383
    eigenvalues: 
  0.846  0.929  0.941
    eigenvectors:
  0.340  0.000  0.660
  0.494  0.251  0.255
  0.166  0.749  0.085
    occupations:
  0.909  0.039  0.022
  0.039  0.891 -0.022
  0.022 -0.022  0.917
atom   10   Tr[ns(na)] =   5.43383
    eigenvalues: 
  0.846  0.929  0.941
    eigenvectors:
  0.340  0.000  0.660
  0.000  1.000  0.000
  0.660  0.000  0.340
    occupations:
  0.909  0.000 -0.045
  0.000  0.929  0.000
 -0.045  0.000  0.879
N of occupied +U levels =  56.2517511
 --- exit write_ns ---
 --- in v_hubbard ---
Hubbard energy    0.0200
 -------

     total cpu time spent up to now is       70.6 secs

     total energy              =    -538.31308897 Ry
     Harris-Foulkes estimate   =    -538.31310616 Ry
     estimated scf accuracy    <       0.00005215 Ry

     iteration #  2     ecut=    30.00 Ry     beta=0.20
     Davidson diagonalization with overlap
     ethr =  6.86E-08,  avg # of iterations =  2.0
 --- enter write_ns ---
 LDA+U parameters:
U( 1)     =  0.00000000
alpha( 1) =  0.00000000
U( 2)     =  0.00000000
alpha( 2) =  0.00000000
U( 3)     =  0.00000000
alpha( 3) =  0.05000000
U( 4)     =  0.00000000
alpha( 4) =  0.00000000
atom    1   Tr[ns(na)] =   8.02277
    eigenvalues: 
  0.596  0.596  0.938  0.941  0.941
    eigenvectors:
  0.000  0.000  0.999  0.000  0.001
  0.101  0.554  0.000  0.207  0.138
  0.554  0.101  0.000  0.138  0.207
  0.174  0.171  0.000  0.060  0.595
  0.171  0.174  0.000  0.595  0.060
    occupations:
  0.938  0.000  0.000  0.000  0.000
  0.000  0.715  0.000 -0.060  0.152
  0.000  0.000  0.715  0.153  0.061
  0.000 -0.060  0.153  0.822  0.000
  0.000  0.152  0.061  0.000  0.822
atom    2   Tr[ns(na)] =   8.02025
    eigenvalues: 
  0.595  0.595  0.938  0.941  0.941
    eigenvectors:
  0.000  0.000  0.999  0.000  0.000
  0.235  0.419  0.000  0.007  0.338
  0.419  0.235  0.000  0.338  0.007
  0.321  0.025  0.000  0.621  0.034
  0.025  0.321  0.000  0.034  0.621
    occupations:
  0.938  0.000  0.000  0.000  0.000
  0.000  0.714  0.000  0.060  0.153
  0.000  0.000  0.714  0.153 -0.060
  0.000  0.060  0.153  0.822  0.000
  0.000  0.153 -0.060  0.000  0.822
atom    3   Tr[ns(na)] =   3.80359
    eigenvalues: 
  0.355  0.356  0.384  0.403  0.403
    eigenvectors:
  0.000  0.000  1.000  0.000  0.000
  0.691  0.230  0.000  0.016  0.063
  0.230  0.691  0.000  0.063  0.016
  0.020  0.059  0.000  0.731  0.190
  0.059  0.020  0.000  0.190  0.731
    occupations:
  0.384  0.000  0.000  0.000  0.000
  0.000  0.359  0.000  0.000  0.013
  0.000  0.000  0.359  0.013  0.000
  0.000  0.000  0.013  0.400  0.000
  0.000  0.013  0.000  0.000  0.400
atom    4   Tr[ns(na)] =   3.80357
    eigenvalues: 
  0.356  0.356  0.384  0.403  0.403
    eigenvectors:
  0.000  0.000  1.000  0.000  0.000
  0.722  0.199  0.000  0.019  0.060
  0.199  0.722  0.000  0.060  0.019
  0.018  0.061  0.000  0.689  0.232
  0.062  0.018  0.000  0.232  0.689
    occupations:
  0.384  0.000  0.000  0.000  0.000
  0.000  0.359  0.000  0.000  0.013
  0.000  0.000  0.359  0.013  0.000
  0.000  0.000  0.013  0.399  0.000
  0.000  0.013  0.000  0.000  0.399
atom    5   Tr[ns(na)] =   5.43083
    eigenvalues: 
  0.846  0.929  0.941
    eigenvectors:
  0.340  0.000  0.660
  0.496  0.250  0.255
  0.164  0.750  0.086
    occupations:
  0.908 -0.039  0.023
 -0.039  0.891  0.022
  0.023  0.022  0.916
atom    6   Tr[ns(na)] =   5.43402
    eigenvalues: 
  0.846  0.929  0.941
    eigenvectors:
  0.340  0.000  0.660
  0.494  0.251  0.256
  0.166  0.749  0.085
    occupations:
  0.909  0.039  0.022
  0.039  0.891 -0.022
  0.022 -0.022  0.917
atom    7   Tr[ns(na)] =   5.43402
    eigenvalues: 
  0.846  0.929  0.941
    eigenvectors:
  0.340  0.000  0.660
  0.000  1.000  0.000
  0.660  0.000  0.340
    occupations:
  0.909  0.000 -0.045
  0.000  0.929  0.000
 -0.045  0.000  0.879
atom    8   Tr[ns(na)] =   5.43375
    eigenvalues: 
  0.846  0.929  0.941
    eigenvectors:
  0.340  0.000  0.660
  0.496  0.250  0.255
  0.164  0.750  0.085
    occupations:
  0.909 -0.039  0.022
 -0.039  0.891  0.022
  0.022  0.022  0.917
atom    9   Tr[ns(na)] =   5.43408
    eigenvalues: 
  0.846  0.929  0.941
    eigenvectors:
  0.340  0.000  0.660
  0.494  0.250  0.255
  0.166  0.750  0.085
    occupations:
  0.909  0.039  0.022
  0.039  0.891 -0.022
  0.022 -0.022  0.917
atom   10   Tr[ns(na)] =   5.43408
    eigenvalues: 
  0.846  0.929  0.941
    eigenvectors:
  0.340  0.000  0.660
  0.000  1.000  0.000
  0.660  0.000  0.340
    occupations:
  0.909  0.000 -0.045
  0.000  0.929  0.000
 -0.045  0.000  0.879
N of occupied +U levels =  56.2509857
 --- exit write_ns ---
 --- in v_hubbard ---
Hubbard energy    0.0200
 -------

     total cpu time spent up to now is       97.4 secs

     total energy              =    -538.31309623 Ry
     Harris-Foulkes estimate   =    -538.31309739 Ry
     estimated scf accuracy    <       0.00000397 Ry

     iteration #  3     ecut=    30.00 Ry     beta=0.20
     Davidson diagonalization with overlap
     ethr =  5.22E-09,  avg # of iterations =  2.0
 --- enter write_ns ---
 LDA+U parameters:
U( 1)     =  0.00000000
alpha( 1) =  0.00000000
U( 2)     =  0.00000000
alpha( 2) =  0.00000000
U( 3)     =  0.00000000
alpha( 3) =  0.05000000
U( 4)     =  0.00000000
alpha( 4) =  0.00000000
atom    1   Tr[ns(na)] =   8.01844
    eigenvalues: 
  0.595  0.596  0.937  0.940  0.940
    eigenvectors:
  0.000  0.000  0.999  0.000  0.001
  0.101  0.554  0.000  0.189  0.156
  0.554  0.101  0.000  0.157  0.188
  0.174  0.171  0.000  0.082  0.572
  0.171  0.174  0.000  0.572  0.082
    occupations:
  0.937  0.000  0.000  0.000  0.000
  0.000  0.715  0.000 -0.060  0.152
  0.000  0.000  0.714  0.152  0.060
  0.000 -0.060  0.152  0.821  0.000
  0.000  0.152  0.060  0.000  0.821
atom    2   Tr[ns(na)] =   8.02668
    eigenvalues: 
  0.595  0.596  0.939  0.942  0.942
    eigenvectors:
  0.000  0.000  0.999  0.000  0.001
  0.235  0.420  0.000  0.014  0.331
  0.420  0.235  0.000  0.331  0.014
  0.321  0.024  0.000  0.636  0.019
  0.024  0.321  0.000  0.018  0.636
    occupations:
  0.939  0.000  0.000  0.000  0.000
  0.000  0.715  0.000  0.060  0.153
  0.000  0.000  0.715  0.153 -0.060
  0.000  0.060  0.153  0.822  0.000
  0.000  0.153 -0.060  0.000  0.822
atom    3   Tr[ns(na)] =   3.80356
    eigenvalues: 
  0.355  0.356  0.384  0.403  0.403
    eigenvectors:
  0.000  0.000  1.000  0.000  0.000
  0.690  0.231  0.000  0.017  0.062
  0.231  0.690  0.000  0.062  0.017
  0.020  0.059  0.000  0.720  0.200
  0.059  0.020  0.000  0.200  0.720
    occupations:
  0.384  0.000  0.000  0.000  0.000
  0.000  0.359  0.000  0.000  0.013
  0.000  0.000  0.359  0.013  0.000
  0.000  0.000  0.013  0.400  0.000
  0.000  0.013  0.000  0.000  0.400
atom    4   Tr[ns(na)] =   3.80355
    eigenvalues: 
  0.356  0.356  0.384  0.403  0.403
    eigenvectors:
  0.000  0.000  1.000  0.000  0.000
  0.756  0.165  0.000  0.020  0.060
  0.164  0.756  0.000  0.059  0.020
  0.015  0.065  0.000  0.683  0.237
  0.065  0.015  0.000  0.237  0.683
    occupations:
  0.384  0.000  0.000  0.000  0.000
  0.000  0.359  0.000  0.000  0.013
  0.000  0.000  0.359  0.013  0.000
  0.000  0.000  0.013  0.399  0.000
  0.000  0.013  0.000  0.000  0.399
atom    5   Tr[ns(na)] =   5.43054
    eigenvalues: 
  0.846  0.929  0.941
    eigenvectors:
  0.340  0.000  0.660
  0.495  0.250  0.255
  0.164  0.750  0.086
    occupations:
  0.908 -0.039  0.023
 -0.039  0.891  0.022
  0.023  0.022  0.916
atom    6   Tr[ns(na)] =   5.43370
    eigenvalues: 
  0.846  0.929  0.941
    eigenvectors:
  0.340  0.000  0.660
  0.494  0.250  0.256
  0.166  0.750  0.085
    occupations:
  0.909  0.039  0.022
  0.039  0.891 -0.022
  0.022 -0.022  0.917
atom    7   Tr[ns(na)] =   5.43370
    eigenvalues: 
  0.846  0.929  0.941
    eigenvectors:
  0.340  0.000  0.660
  0.000  1.000  0.000
  0.660  0.000  0.340
    occupations:
  0.909  0.000 -0.045
  0.000  0.929  0.000
 -0.045  0.000  0.879
atom    8   Tr[ns(na)] =   5.43352
    eigenvalues: 
  0.846  0.929  0.941
    eigenvectors:
  0.340  0.000  0.660
  0.495  0.250  0.255
  0.164  0.750  0.086
    occupations:
  0.909 -0.039  0.022
 -0.039  0.891  0.022
  0.022  0.022  0.917
atom    9   Tr[ns(na)] =   5.43373
    eigenvalues: 
  0.846  0.929  0.941
    eigenvectors:
  0.340  0.000  0.660
  0.495  0.250  0.256
  0.165  0.750  0.085
    occupations:
  0.909  0.039  0.022
  0.039  0.891 -0.022
  0.022 -0.022  0.917
atom   10   Tr[ns(na)] =   5.43373
    eigenvalues: 
  0.846  0.929  0.941
    eigenvectors:
  0.340  0.000  0.660
  0.000  1.000  0.000
  0.660  0.000  0.340
    occupations:
  0.909  0.000 -0.045
  0.000  0.929  0.000
 -0.045  0.000  0.879
N of occupied +U levels =  56.2511450
 --- exit write_ns ---
 --- in v_hubbard ---
Hubbard energy    0.0200
 -------

     total cpu time spent up to now is      126.7 secs

     total energy              =    -538.31309563 Ry
     Harris-Foulkes estimate   =    -538.31309830 Ry
     estimated scf accuracy    <       0.00004020 Ry

     iteration #  4     ecut=    30.00 Ry     beta=0.20
     Davidson diagonalization with overlap
     ethr =  5.22E-09,  avg # of iterations =  1.0
 --- enter write_ns ---
 LDA+U parameters:
U( 1)     =  0.00000000
alpha( 1) =  0.00000000
U( 2)     =  0.00000000
alpha( 2) =  0.00000000
U( 3)     =  0.00000000
alpha( 3) =  0.05000000
U( 4)     =  0.00000000
alpha( 4) =  0.00000000
atom    1   Tr[ns(na)] =   8.02348
    eigenvalues: 
  0.596  0.596  0.938  0.941  0.941
    eigenvectors:
  0.000  0.000  0.999  0.000  0.001
  0.101  0.554  0.000  0.185  0.160
  0.554  0.101  0.000  0.160  0.185
  0.174  0.171  0.000  0.087  0.568
  0.171  0.174  0.000  0.568  0.086
    occupations:
  0.938  0.000  0.000  0.000  0.000
  0.000  0.715  0.000 -0.060  0.152
  0.000  0.000  0.715  0.152  0.060
  0.000 -0.060  0.152  0.822  0.000
  0.000  0.152  0.060  0.000  0.822
atom    2   Tr[ns(na)] =   8.02161
    eigenvalues: 
  0.595  0.595  0.938  0.941  0.941
    eigenvectors:
  0.000  0.000  0.999  0.000  0.001
  0.235  0.420  0.000  0.016  0.329
  0.420  0.235  0.000  0.329  0.016
  0.321  0.024  0.000  0.639  0.016
  0.024  0.321  0.000  0.016  0.638
    occupations:
  0.938  0.000  0.000  0.000  0.000
  0.000  0.715  0.000  0.060  0.153
  0.000  0.000  0.715  0.153 -0.060
  0.000  0.060  0.153  0.822  0.000
  0.000  0.153 -0.060  0.000  0.822
atom    3   Tr[ns(na)] =   3.80355
    eigenvalues: 
  0.355  0.356  0.384  0.403  0.403
    eigenvectors:
  0.000  0.000  1.000  0.000  0.000
  0.690  0.231  0.000  0.013  0.066
  0.231  0.690  0.000  0.066  0.013
  0.020  0.059  0.000  0.762  0.159
  0.059  0.020  0.000  0.159  0.762
    occupations:
  0.384  0.000  0.000  0.000  0.000
  0.000  0.359  0.000  0.000  0.013
  0.000  0.000  0.359  0.013  0.000
  0.000  0.000  0.013  0.400  0.000
  0.000  0.013  0.000  0.000  0.400
atom    4   Tr[ns(na)] =   3.80354
    eigenvalues: 
  0.356  0.356  0.384  0.403  0.403
    eigenvectors:
  0.000  0.000  1.000  0.000  0.000
  0.736  0.184  0.000  0.020  0.060
  0.184  0.737  0.000  0.059  0.020
  0.017  0.063  0.000  0.685  0.236
  0.063  0.016  0.000  0.236  0.684
    occupations:
  0.384  0.000  0.000  0.000  0.000
  0.000  0.359  0.000  0.000  0.013
  0.000  0.000  0.359  0.013  0.000
  0.000  0.000  0.013  0.399  0.000
  0.000  0.013  0.000  0.000  0.399
atom    5   Tr[ns(na)] =   5.43055
    eigenvalues: 
  0.846  0.929  0.941
    eigenvectors:
  0.340  0.000  0.660
  0.496  0.250  0.255
  0.164  0.750  0.086
    occupations:
  0.908 -0.039  0.023
 -0.039  0.891  0.022
  0.023  0.022  0.916
atom    6   Tr[ns(na)] =   5.43370
    eigenvalues: 
  0.846  0.929  0.941
    eigenvectors:
  0.340  0.000  0.660
  0.494  0.251  0.255
  0.166  0.749  0.085
    occupations:
  0.909  0.039  0.022
  0.039  0.891 -0.022
  0.022 -0.022  0.917
atom    7   Tr[ns(na)] =   5.43370
    eigenvalues: 
  0.846  0.929  0.941
    eigenvectors:
  0.340  0.000  0.660
  0.000  1.000  0.000
  0.660  0.000  0.340
    occupations:
  0.909  0.000 -0.045
  0.000  0.929  0.000
 -0.045  0.000  0.879
atom    8   Tr[ns(na)] =   5.43353
    eigenvalues: 
  0.846  0.929  0.941
    eigenvectors:
  0.340  0.000  0.660
  0.496  0.250  0.255
  0.164  0.750  0.085
    occupations:
  0.909 -0.039  0.022
 -0.039  0.891  0.022
  0.022  0.022  0.917
atom    9   Tr[ns(na)] =   5.43373
    eigenvalues: 
  0.846  0.929  0.941
    eigenvectors:
  0.340  0.000  0.660
  0.494  0.250  0.255
  0.166  0.750  0.085
    occupations:
  0.909  0.039  0.022
  0.039  0.891 -0.022
  0.022 -0.022  0.917
atom   10   Tr[ns(na)] =   5.43373
    eigenvalues: 
  0.846  0.929  0.941
    eigenvectors:
  0.340  0.000  0.660
  0.000  1.000  0.000
  0.660  0.000  0.340
    occupations:
  0.909  0.000 -0.045
  0.000  0.929  0.000
 -0.045  0.000  0.879
N of occupied +U levels =  56.2511235
 --- exit write_ns ---
 --- in v_hubbard ---
Hubbard energy    0.0200
 -------

     total cpu time spent up to now is      155.7 secs

     total energy              =    -538.31309703 Ry
     Harris-Foulkes estimate   =    -538.31309712 Ry
     estimated scf accuracy    <       0.00000101 Ry

     iteration #  5     ecut=    30.00 Ry     beta=0.20
     Davidson diagonalization with overlap
     ethr =  1.33E-09,  avg # of iterations =  1.0
 --- enter write_ns ---
 LDA+U parameters:
U( 1)     =  0.00000000
alpha( 1) =  0.00000000
U( 2)     =  0.00000000
alpha( 2) =  0.00000000
U( 3)     =  0.00000000
alpha( 3) =  0.05000000
U( 4)     =  0.00000000
alpha( 4) =  0.00000000
atom    1   Tr[ns(na)] =   8.02269
    eigenvalues: 
  0.596  0.596  0.938  0.941  0.941
    eigenvectors:
  0.000  0.000  0.999  0.000  0.001
  0.101  0.553  0.000  0.174  0.171
  0.554  0.101  0.000  0.172  0.173
  0.174  0.171  0.000  0.102  0.553
  0.171  0.174  0.000  0.553  0.102
    occupations:
  0.938  0.000  0.000  0.000  0.000
  0.000  0.715  0.000 -0.060  0.152
  0.000  0.000  0.715  0.152  0.060
  0.000 -0.060  0.152  0.822  0.000
  0.000  0.152  0.060  0.000  0.822
atom    2   Tr[ns(na)] =   8.02205
    eigenvalues: 
  0.595  0.595  0.938  0.941  0.941
    eigenvectors:
  0.000  0.000  0.999  0.000  0.001
  0.235  0.420  0.000  0.021  0.324
  0.420  0.235  0.000  0.324  0.021
  0.321  0.024  0.000  0.645  0.010
  0.024  0.321  0.000  0.010  0.645
    occupations:
  0.938  0.000  0.000  0.000  0.000
  0.000  0.715  0.000  0.060  0.153
  0.000  0.000  0.715  0.153 -0.060
  0.000  0.060  0.153  0.822  0.000
  0.000  0.153 -0.060  0.000  0.822
atom    3   Tr[ns(na)] =   3.80350
    eigenvalues: 
  0.355  0.356  0.384  0.403  0.403
    eigenvectors:
  0.000  0.000  1.000  0.000  0.000
  0.690  0.231  0.000  0.014  0.065
  0.231  0.690  0.000  0.065  0.014
  0.020  0.059  0.000  0.747  0.174
  0.059  0.020  0.000  0.174  0.747
    occupations:
  0.384  0.000  0.000  0.000  0.000
  0.000  0.359  0.000  0.000  0.013
  0.000  0.000  0.359  0.013  0.000
  0.000  0.000  0.013  0.400  0.000
  0.000  0.013  0.000  0.000  0.400
atom    4   Tr[ns(na)] =   3.80349
    eigenvalues: 
  0.356  0.356  0.384  0.403  0.403
    eigenvectors:
  0.000  0.000  1.000  0.000  0.000
  0.727  0.193  0.000  0.020  0.060
  0.193  0.728  0.000  0.060  0.020
  0.017  0.062  0.000  0.685  0.236
  0.062  0.017  0.000  0.236  0.685
    occupations:
  0.384  0.000  0.000  0.000  0.000
  0.000  0.359  0.000  0.000  0.013
  0.000  0.000  0.359  0.013  0.000
  0.000  0.000  0.013  0.399  0.000
  0.000  0.013  0.000  0.000  0.399
atom    5   Tr[ns(na)] =   5.43062
    eigenvalues: 
  0.846  0.929  0.941
    eigenvectors:
  0.340  0.000  0.660
  0.495  0.250  0.255
  0.164  0.750  0.086
    occupations:
  0.908 -0.039  0.023
 -0.039  0.891  0.022
  0.023  0.022  0.916
atom    6   Tr[ns(na)] =   5.43376
    eigenvalues: 
  0.846  0.929  0.941
    eigenvectors:
  0.340  0.000  0.660
  0.494  0.251  0.255
  0.166  0.749  0.085
    occupations:
  0.909  0.039  0.022
  0.039  0.891 -0.022
  0.022 -0.022  0.917
atom    7   Tr[ns(na)] =   5.43376
    eigenvalues: 
  0.846  0.929  0.941
    eigenvectors:
  0.340  0.000  0.660
  0.000  1.000  0.000
  0.660  0.000  0.340
    occupations:
  0.909  0.000 -0.045
  0.000  0.929  0.000
 -0.045  0.000  0.879
atom    8   Tr[ns(na)] =   5.43361
    eigenvalues: 
  0.846  0.929  0.941
    eigenvectors:
  0.340  0.000  0.660
  0.496  0.250  0.255
  0.164  0.750  0.086
    occupations:
  0.909 -0.039  0.022
 -0.039  0.891  0.022
  0.022  0.022  0.917
atom    9   Tr[ns(na)] =   5.43378
    eigenvalues: 
  0.846  0.929  0.941
    eigenvectors:
  0.340  0.000  0.660
  0.494  0.250  0.255
  0.166  0.750  0.085
    occupations:
  0.909  0.039  0.022
  0.039  0.891 -0.022
  0.022 -0.022  0.917
atom   10   Tr[ns(na)] =   5.43378
    eigenvalues: 
  0.846  0.929  0.941
    eigenvectors:
  0.340  0.000  0.660
  0.000  1.000  0.000
  0.660  0.000  0.340
    occupations:
  0.909  0.000 -0.045
  0.000  0.929  0.000
 -0.045  0.000  0.879
N of occupied +U levels =  56.2510618
 --- exit write_ns ---
 --- in v_hubbard ---
Hubbard energy    0.0200
 -------

     total cpu time spent up to now is      182.6 secs

     total energy              =    -538.31309703 Ry
     Harris-Foulkes estimate   =    -538.31309707 Ry
     estimated scf accuracy    <       0.00000012 Ry

     iteration #  6     ecut=    30.00 Ry     beta=0.20
     Davidson diagonalization with overlap
     ethr =  1.58E-10,  avg # of iterations =  2.0
 --- enter write_ns ---
 LDA+U parameters:
U( 1)     =  0.00000000
alpha( 1) =  0.00000000
U( 2)     =  0.00000000
alpha( 2) =  0.00000000
U( 3)     =  0.00000000
alpha( 3) =  0.05000000
U( 4)     =  0.00000000
alpha( 4) =  0.00000000
atom    1   Tr[ns(na)] =   8.02270
    eigenvalues: 
  0.596  0.596  0.938  0.941  0.941
    eigenvectors:
  0.000  0.000  0.999  0.000  0.001
  0.102  0.553  0.000  0.153  0.192
  0.553  0.102  0.000  0.193  0.152
  0.174  0.171  0.000  0.132  0.522
  0.171  0.174  0.000  0.522  0.132
    occupations:
  0.938  0.000  0.000  0.000  0.000
  0.000  0.715  0.000 -0.060  0.152
  0.000  0.000  0.715  0.152  0.060
  0.000 -0.060  0.152  0.822  0.000
  0.000  0.152  0.060  0.000  0.822
atom    2   Tr[ns(na)] =   8.02207
    eigenvalues: 
  0.595  0.595  0.938  0.941  0.941
    eigenvectors:
  0.000  0.000  0.999  0.000  0.001
  0.234  0.420  0.000  0.032  0.312
  0.420  0.234  0.000  0.313  0.032
  0.321  0.024  0.000  0.652  0.002
  0.024  0.321  0.001  0.002  0.652
    occupations:
  0.938  0.000  0.000  0.000  0.000
  0.000  0.715  0.000  0.060  0.153
  0.000  0.000  0.715  0.153 -0.060
  0.000  0.060  0.153  0.822  0.000
  0.000  0.153 -0.060  0.000  0.822
atom    3   Tr[ns(na)] =   3.80340
    eigenvalues: 
  0.355  0.356  0.384  0.403  0.403
    eigenvectors:
  0.000  0.000  1.000  0.000  0.000
  0.690  0.231  0.000  0.014  0.066
  0.231  0.690  0.000  0.066  0.014
  0.020  0.059  0.000  0.756  0.165
  0.059  0.020  0.000  0.165  0.756
    occupations:
  0.384  0.000  0.000  0.000  0.000
  0.000  0.359  0.000  0.000  0.013
  0.000  0.000  0.359  0.013  0.000
  0.000  0.000  0.013  0.400  0.000
  0.000  0.013  0.000  0.000  0.400
atom    4   Tr[ns(na)] =   3.80339
    eigenvalues: 
  0.355  0.356  0.384  0.403  0.403
    eigenvectors:
  0.000  0.000  1.000  0.000  0.000
  0.729  0.191  0.000  0.020  0.060
  0.191  0.730  0.000  0.060  0.020
  0.017  0.062  0.000  0.686  0.235
  0.063  0.017  0.000  0.235  0.686
    occupations:
  0.384  0.000  0.000  0.000  0.000
  0.000  0.359  0.000  0.000  0.013
  0.000  0.000  0.359  0.013  0.000
  0.000  0.000  0.013  0.399  0.000
  0.000  0.013  0.000  0.000  0.399
atom    5   Tr[ns(na)] =   5.43064
    eigenvalues: 
  0.846  0.929  0.941
    eigenvectors:
  0.340  0.000  0.660
  0.495  0.250  0.255
  0.164  0.750  0.086
    occupations:
  0.908 -0.039  0.023
 -0.039  0.891  0.022
  0.023  0.022  0.916
atom    6   Tr[ns(na)] =   5.43378
    eigenvalues: 
  0.846  0.929  0.941
    eigenvectors:
  0.340  0.000  0.660
  0.494  0.251  0.255
  0.166  0.749  0.085
    occupations:
  0.909  0.039  0.022
  0.039  0.891 -0.022
  0.022 -0.022  0.917
atom    7   Tr[ns(na)] =   5.43378
    eigenvalues: 
  0.846  0.929  0.941
    eigenvectors:
  0.340  0.000  0.660
  0.000  1.000  0.000
  0.660  0.000  0.340
    occupations:
  0.909  0.000 -0.045
  0.000  0.929  0.000
 -0.045  0.000  0.879
atom    8   Tr[ns(na)] =   5.43364
    eigenvalues: 
  0.846  0.929  0.941
    eigenvectors:
  0.340  0.000  0.660
  0.496  0.250  0.255
  0.164  0.750  0.086
    occupations:
  0.909 -0.039  0.022
 -0.039  0.891  0.022
  0.022  0.022  0.917
atom    9   Tr[ns(na)] =   5.43380
    eigenvalues: 
  0.846  0.929  0.941
    eigenvectors:
  0.340  0.000  0.660
  0.494  0.250  0.255
  0.166  0.750  0.085
    occupations:
  0.909  0.039  0.022
  0.039  0.891 -0.022
  0.022 -0.022  0.917
atom   10   Tr[ns(na)] =   5.43380
    eigenvalues: 
  0.846  0.929  0.941
    eigenvectors:
  0.340  0.000  0.660
  0.000  1.000  0.000
  0.660  0.000  0.340
    occupations:
  0.909  0.000 -0.045
  0.000  0.929  0.000
 -0.045  0.000  0.879
N of occupied +U levels =  56.2509960
 --- exit write_ns ---
 --- in v_hubbard ---
Hubbard energy    0.0200
 -------

     total cpu time spent up to now is      210.5 secs

     total energy              =    -538.31309704 Ry
     Harris-Foulkes estimate   =    -538.31309704 Ry
     estimated scf accuracy    <       0.00000002 Ry

     iteration #  7     ecut=    30.00 Ry     beta=0.20
     Davidson diagonalization with overlap
     ethr =  2.52E-11,  avg # of iterations =  1.8
 --- enter write_ns ---
 LDA+U parameters:
U( 1)     =  0.00000000
alpha( 1) =  0.00000000
U( 2)     =  0.00000000
alpha( 2) =  0.00000000
U( 3)     =  0.00000000
alpha( 3) =  0.05000000
U( 4)     =  0.00000000
alpha( 4) =  0.00000000
atom    1   Tr[ns(na)] =   8.02270
    eigenvalues: 
  0.596  0.596  0.938  0.941  0.941
    eigenvectors:
  0.000  0.000  0.999  0.000  0.001
  0.102  0.553  0.000  0.156  0.189
  0.553  0.102  0.000  0.189  0.156
  0.174  0.171  0.000  0.128  0.527
  0.171  0.174  0.000  0.527  0.127
    occupations:
  0.938  0.000  0.000  0.000  0.000
  0.000  0.715  0.000 -0.060  0.152
  0.000  0.000  0.715  0.152  0.060
  0.000 -0.060  0.152  0.822  0.000
  0.000  0.152  0.060  0.000  0.822
atom    2   Tr[ns(na)] =   8.02209
    eigenvalues: 
  0.595  0.595  0.938  0.941  0.941
    eigenvectors:
  0.000  0.000  0.999  0.000  0.001
  0.235  0.420  0.000  0.031  0.314
  0.420  0.234  0.000  0.315  0.031
  0.321  0.024  0.000  0.651  0.003
  0.024  0.321  0.001  0.003  0.651
    occupations:
  0.938  0.000  0.000  0.000  0.000
  0.000  0.715  0.000  0.060  0.153
  0.000  0.000  0.715  0.153 -0.060
  0.000  0.060  0.153  0.822  0.000
  0.000  0.153 -0.060  0.000  0.822
atom    3   Tr[ns(na)] =   3.80342
    eigenvalues: 
  0.355  0.356  0.384  0.403  0.403
    eigenvectors:
  0.000  0.000  1.000  0.000  0.000
  0.690  0.231  0.000  0.013  0.066
  0.231  0.690  0.000  0.066  0.013
  0.020  0.059  0.000  0.759  0.162
  0.059  0.020  0.000  0.162  0.759
    occupations:
  0.384  0.000  0.000  0.000  0.000
  0.000  0.359  0.000  0.000  0.013
  0.000  0.000  0.359  0.013  0.000
  0.000  0.000  0.013  0.400  0.000
  0.000  0.013  0.000  0.000  0.400
atom    4   Tr[ns(na)] =   3.80341
    eigenvalues: 
  0.355  0.356  0.384  0.403  0.403
    eigenvectors:
  0.000  0.000  1.000  0.000  0.000
  0.719  0.201  0.000  0.020  0.060
  0.201  0.719  0.000  0.060  0.020
  0.018  0.061  0.000  0.686  0.235
  0.062  0.018  0.000  0.235  0.686
    occupations:
  0.384  0.000  0.000  0.000  0.000
  0.000  0.359  0.000  0.000  0.013
  0.000  0.000  0.359  0.013  0.000
  0.000  0.000  0.013  0.399  0.000
  0.000  0.013  0.000  0.000  0.399
atom    5   Tr[ns(na)] =   5.43066
    eigenvalues: 
  0.846  0.929  0.941
    eigenvectors:
  0.340  0.000  0.660
  0.495  0.250  0.255
  0.164  0.750  0.086
    occupations:
  0.908 -0.039  0.023
 -0.039  0.891  0.022
  0.023  0.022  0.916
atom    6   Tr[ns(na)] =   5.43377
    eigenvalues: 
  0.846  0.929  0.941
    eigenvectors:
  0.340  0.000  0.660
  0.494  0.251  0.255
  0.166  0.749  0.085
    occupations:
  0.909  0.039  0.022
  0.039  0.891 -0.022
  0.022 -0.022  0.917
atom    7   Tr[ns(na)] =   5.43377
    eigenvalues: 
  0.846  0.929  0.941
    eigenvectors:
  0.340  0.000  0.660
  0.000  1.000  0.000
  0.660  0.000  0.340
    occupations:
  0.909  0.000 -0.045
  0.000  0.929  0.000
 -0.045  0.000  0.879
atom    8   Tr[ns(na)] =   5.43362
    eigenvalues: 
  0.846  0.929  0.941
    eigenvectors:
  0.340  0.000  0.660
  0.496  0.250  0.255
  0.164  0.750  0.086
    occupations:
  0.909 -0.039  0.022
 -0.039  0.891  0.022
  0.022  0.022  0.917
atom    9   Tr[ns(na)] =   5.43379
    eigenvalues: 
  0.846  0.929  0.941
    eigenvectors:
  0.340  0.000  0.660
  0.494  0.250  0.255
  0.166  0.750  0.085
    occupations:
  0.909  0.039  0.022
  0.039  0.891 -0.022
  0.022 -0.022  0.917
atom   10   Tr[ns(na)] =   5.43379
    eigenvalues: 
  0.846  0.929  0.941
    eigenvectors:
  0.340  0.000  0.660
  0.000  1.000  0.000
  0.660  0.000  0.340
    occupations:
  0.909  0.000 -0.045
  0.000  0.929  0.000
 -0.045  0.000  0.879
N of occupied +U levels =  56.2510153
 --- exit write_ns ---
 --- in v_hubbard ---
Hubbard energy    0.0200
 -------

     total cpu time spent up to now is      237.6 secs

     End of self-consistent calculation

          k = 0.0000 0.0000 0.0000 (  2175 PWs)   bands (ev):

   -19.7916 -19.6182  -6.5322  -5.8153  -5.8048  -5.7944  -5.7909  -5.4657
    -3.7433  -3.2553  -3.1806  -3.1798  -3.0159  -3.0155   5.2101   6.9471
     6.9517   7.5366   7.5422   7.7330   7.8394   7.8422   7.9010   9.3164
     9.6337   9.6384   9.8883   9.9386   9.9409  10.4852  10.4866  10.6752
    10.6752  10.6974  10.8238  11.5207  11.5215  12.1929  12.3101  12.3110
    14.7848  14.7861  15.4333  15.4340  16.1990  16.7900

     occupation numbers 
     0.0313   0.0313   0.0313   0.0313   0.0313   0.0313   0.0313   0.0313
     0.0313   0.0313   0.0313   0.0313   0.0313   0.0313   0.0313   0.0313
     0.0313   0.0313   0.0313   0.0313   0.0313   0.0313   0.0313   0.0313
     0.0313   0.0313   0.0312   0.0312   0.0312   0.0312   0.0312   0.0312
     0.0312   0.0312   0.0312   0.0309   0.0309   0.0149   0.0101   0.0100
     0.0000   0.0000   0.0000   0.0000   0.0000   0.0000

          k =-0.2471-0.1427 0.1027 (  2181 PWs)   bands (ev):

   -19.7635 -19.6410  -6.7120  -6.2706  -5.9122  -5.8227  -5.5881  -5.4547
    -3.5625  -3.3725  -2.9134  -2.8905  -2.8280  -2.7463   5.5746   6.9011
     7.0489   7.0590   7.3609   7.5325   7.5932   7.8398   7.8842   8.6353
     8.7314   9.3647   9.6841   9.8180   9.8698  10.0491  10.3957  10.4078
    11.0485  11.0797  11.1627  11.8940  11.9457  12.0075  12.3688  12.4272
    14.3294  14.3368  15.8215  16.0763  16.9762  17.2716

     occupation numbers 
     0.0625   0.0625   0.0625   0.0625   0.0625   0.0625   0.0625   0.0625
     0.0625   0.0625   0.0625   0.0625   0.0625   0.0625   0.0625   0.0625
     0.0625   0.0625   0.0625   0.0625   0.0625   0.0625   0.0625   0.0625
     0.0625   0.0625   0.0625   0.0625   0.0625   0.0625   0.0625   0.0625
     0.0625   0.0625   0.0625   0.0523   0.0493   0.0451   0.0158   0.0121
     0.0000   0.0000   0.0000   0.0000   0.0000   0.0000

          k = 0.4942 0.2853-0.2053 (  2202 PWs)   bands (ev):

   -19.6999 -19.6992  -6.7136  -6.6982  -5.9379  -5.9289  -5.4983  -5.4927
    -3.3630  -3.3589  -2.7717  -2.7711  -2.4978  -2.4949   6.1081   6.1188
     7.2401   7.2587   7.3078   7.3239   7.6759   7.6973   7.9981   8.0250
     8.2106   8.2424   9.5564   9.5615   9.8926   9.9007  10.3009  10.3108
    11.4871  11.4879  11.5665  11.5686  11.7311  11.7357  13.3081  13.3377
    13.3961  13.4242  16.8408  16.8446  17.1379  17.1412

     occupation numbers 
     0.0313   0.0313   0.0313   0.0313   0.0313   0.0313   0.0313   0.0313
     0.0313   0.0313   0.0313   0.0313   0.0313   0.0313   0.0313   0.0313
     0.0313   0.0313   0.0313   0.0313   0.0313   0.0313   0.0313   0.0313
     0.0313   0.0313   0.0313   0.0313   0.0312   0.0312   0.0312   0.0312
     0.0310   0.0310   0.0307   0.0307   0.0293   0.0293   0.0000   0.0000
     0.0000   0.0000   0.0000   0.0000   0.0000   0.0000

          k =-0.2471 0.1427 0.2053 (  2195 PWs)   bands (ev):

   -19.7589 -19.6437  -6.8331  -6.2085  -6.0426  -5.8136  -5.6379  -5.4232
    -3.3892  -3.2486  -3.0820  -2.8714  -2.7946  -2.5475   5.6029   6.8739
     6.9449   7.1340   7.2651   7.4975   7.5060   7.8892   7.8930   8.7028
     8.9304   8.9340   9.3123   9.8182  10.0090  10.1167  10.2181  10.3145
    10.6988  11.4067  11.4325  11.5237  11.9444  12.0109  12.1846  12.7505
    13.6508  14.7996  15.9974  16.1989  17.0397  17.5406

     occupation numbers 
     0.0625   0.0625   0.0625   0.0625   0.0625   0.0625   0.0625   0.0625
     0.0625   0.0625   0.0625   0.0625   0.0625   0.0625   0.0625   0.0625
     0.0625   0.0625   0.0625   0.0625   0.0625   0.0625   0.0625   0.0625
     0.0625   0.0625   0.0625   0.0625   0.0625   0.0625   0.0625   0.0625
     0.0625   0.0623   0.0622   0.0618   0.0494   0.0449   0.0306   0.0015
     0.0000   0.0000   0.0000   0.0000   0.0000   0.0000

          k = 0.4942 0.5706-0.1027 (  2198 PWs)   bands (ev):

   -19.7187 -19.6782  -6.9341  -6.6301  -6.1074  -5.8789  -5.4885  -5.3471
    -3.2849  -3.2381  -2.8626  -2.6926  -2.5135  -2.3709   5.9337   6.3060
     6.9032   7.0508   7.2487   7.3631   7.5857   7.8306   7.9681   8.1009
     8.3880   8.9304   9.1918   9.3762   9.6846   9.8402   9.9931  10.3807
    11.1142  11.5555  11.6433  11.7153  11.8462  11.8702  12.3495  12.7538
    13.4408  14.3757  16.9101  17.1208  17.3170  18.0215

     occupation numbers 
     0.0625   0.0625   0.0625   0.0625   0.0625   0.0625   0.0625   0.0625
     0.0625   0.0625   0.0625   0.0625   0.0625   0.0625   0.0625   0.0625
     0.0625   0.0625   0.0625   0.0625   0.0625   0.0625   0.0625   0.0625
     0.0625   0.0625   0.0625   0.0625   0.0625   0.0625   0.0625   0.0625
     0.0625   0.0615   0.0605   0.0591   0.0546   0.0535   0.0172   0.0014
     0.0000   0.0000   0.0000   0.0000   0.0000   0.0000

          k = 0.2471 0.4280 0.0000 (  2203 PWs)   bands (ev):

   -19.7282 -19.6706  -6.8327  -6.6157  -6.0394  -5.9525  -5.4084  -5.3407
    -3.4894  -3.2799  -2.7859  -2.6985  -2.5534  -2.5418   5.9172   6.3464
     7.1098   7.1544   7.2498   7.3393   7.4881   7.7463   7.8479   8.2090
     8.4460   8.9625   9.4476   9.4945   9.7944   9.8149  10.0865  10.3845
    11.4137  11.4240  11.4531  11.6739  11.6847  11.9670  12.2974  13.3361
    13.4078  14.1727  16.4430  16.9978  17.4252  17.9325

     occupation numbers 
     0.0625   0.0625   0.0625   0.0625   0.0625   0.0625   0.0625   0.0625
     0.0625   0.0625   0.0625   0.0625   0.0625   0.0625   0.0625   0.0625
     0.0625   0.0625   0.0625   0.0625   0.0625   0.0625   0.0625   0.0625
     0.0625   0.0625   0.0625   0.0625   0.0625   0.0625   0.0625   0.0625
     0.0622   0.0622   0.0621   0.0600   0.0598   0.0479   0.0211   0.0000
     0.0000   0.0000   0.0000   0.0000   0.0000   0.0000

          k = 0.4942-0.2853-0.4107 (  2202 PWs)   bands (ev):

   -19.7258 -19.6689  -7.1431  -6.4388  -6.2210  -5.9465  -5.5183  -5.2506
    -3.1751  -3.1146  -3.0256  -2.6372  -2.4671  -2.2087   5.8282   6.3498
     6.4729   6.9399   7.1649   7.2720   7.9045   7.9312   8.1751   8.3433
     8.6122   8.6131   8.6611   9.4431   9.6945  10.0551  10.0901  10.4575
    10.6635  11.3089  11.5802  11.7672  11.8734  11.9868  12.0800  12.4695
    13.3403  14.8116  17.0460  17.2708  17.5252  17.6115

     occupation numbers 
     0.0313   0.0313   0.0313   0.0313   0.0313   0.0313   0.0313   0.0313
     0.0313   0.0313   0.0313   0.0313   0.0313   0.0313   0.0313   0.0313
     0.0313   0.0313   0.0313   0.0313   0.0313   0.0313   0.0313   0.0313
     0.0313   0.0313   0.0313   0.0313   0.0313   0.0312   0.0312   0.0312
     0.0312   0.0312   0.0306   0.0288   0.0267   0.0233   0.0197   0.0049
     0.0000   0.0000   0.0000   0.0000   0.0000   0.0000

          k = 0.0000 0.0000 0.3080 (  2187 PWs)   bands (ev):

   -19.7632 -19.6408  -6.5998  -5.9621  -5.9047  -5.8975  -5.8177  -5.8113
    -3.1827  -3.0870  -3.0858  -2.9562  -2.8823  -2.8812   5.6278   7.0436
     7.0484   7.1616   7.4578   7.4635   7.5401   7.8697   7.8720   8.8813
     8.8842   9.4528   9.4607   9.6800   9.6853   9.8960  10.1535  10.1583
    11.1653  11.1656  11.2302  11.9070  11.9074  12.0200  12.3496  12.3506
    14.2897  14.2910  15.9153  15.9162  16.8822  17.4860

     occupation numbers 
     0.0625   0.0625   0.0625   0.0625   0.0625   0.0625   0.0625   0.0625
     0.0625   0.0625   0.0625   0.0625   0.0625   0.0625   0.0625   0.0625
     0.0625   0.0625   0.0625   0.0625   0.0625   0.0625   0.0625   0.0625
     0.0625   0.0625   0.0625   0.0625   0.0625   0.0625   0.0625   0.0625
     0.0625   0.0625   0.0625   0.0516   0.0516   0.0442   0.0172   0.0171
     0.0000   0.0000   0.0000   0.0000   0.0000   0.0000

          k = 0.7412 0.4280 0.0000 (  2204 PWs)   bands (ev):

   -19.7280 -19.6703  -6.7155  -6.5840  -6.1251  -5.8086  -5.6479  -5.5230
    -3.1513  -3.0731  -3.0328  -2.6616  -2.6402  -2.5694   5.9512   6.5329
     7.1186   7.2253   7.2544   7.3639   7.4722   7.6898   8.0288   8.1695
     8.4789   8.8616   9.4909   9.5106   9.6330   9.7042   9.8784  10.2398
    11.4123  11.4261  11.5228  11.7050  11.7320  11.8962  12.3073  13.2615
    13.3242  14.1944  16.6960  16.7280  17.5953  17.8004

     occupation numbers 
     0.0625   0.0625   0.0625   0.0625   0.0625   0.0625   0.0625   0.0625
     0.0625   0.0625   0.0625   0.0625   0.0625   0.0625   0.0625   0.0625
     0.0625   0.0625   0.0625   0.0625   0.0625   0.0625   0.0625   0.0625
     0.0625   0.0625   0.0625   0.0625   0.0625   0.0625   0.0625   0.0625
     0.0622   0.0622   0.0618   0.0593   0.0587   0.0522   0.0204   0.0000
     0.0000   0.0000   0.0000   0.0000   0.0000   0.0000

          k = 0.4942 0.2853 0.1027 (  2211 PWs)   bands (ev):

   -19.7183 -19.6779  -6.9555  -6.5260  -6.3041  -5.6702  -5.6017  -5.3268
    -3.2987  -3.1525  -3.0121  -2.5912  -2.5467  -2.3652   5.9701   6.2679
     6.8655   7.0445   7.2476   7.3106   7.6012   7.9005   8.0040   8.0630
     8.4176   9.0615   9.1841   9.4263   9.5692   9.6936  10.0428  10.4071
    11.1289  11.5903  11.7170  11.7232  11.7834  11.8027  12.3020  12.7713
    13.4841  14.3584  16.8913  16.9397  17.5884  17.9351

     occupation numbers 
     0.0625   0.0625   0.0625   0.0625   0.0625   0.0625   0.0625   0.0625
     0.0625   0.0625   0.0625   0.0625   0.0625   0.0625   0.0625   0.0625
     0.0625   0.0625   0.0625   0.0625   0.0625   0.0625   0.0625   0.0625
     0.0625   0.0625   0.0625   0.0625   0.0625   0.0625   0.0625   0.0625
     0.0625   0.0612   0.0590   0.0589   0.0571   0.0564   0.0208   0.0012
     0.0000   0.0000   0.0000   0.0000   0.0000   0.0000

          k = 0.7412-0.4280-0.3080 (  2210 PWs)   bands (ev):

   -19.7185 -19.6779  -6.8860  -6.4341  -6.2806  -5.7836  -5.7358  -5.4482
    -3.0550  -3.0338  -2.9511  -2.7143  -2.6056  -2.4139   6.0216   6.4188
     6.9503   7.0284   7.2891   7.2917   7.6261   7.9221   8.0490   8.0965
     8.3977   9.0277   9.0481   9.5435   9.5666   9.6091   9.6845  10.2384
    11.1844  11.6123  11.7031  11.7137  11.8273  11.8681  12.2592  12.7189
    13.4341  14.3267  17.0662  17.0729  17.5571  17.9092

     occupation numbers 
     0.0625   0.0625   0.0625   0.0625   0.0625   0.0625   0.0625   0.0625
     0.0625   0.0625   0.0625   0.0625   0.0625   0.0625   0.0625   0.0625
     0.0625   0.0625   0.0625   0.0625   0.0625   0.0625   0.0625   0.0625
     0.0625   0.0625   0.0625   0.0625   0.0625   0.0625   0.0625   0.0625
     0.0625   0.0609   0.0594   0.0591   0.0555   0.0536   0.0242   0.0019
     0.0000   0.0000   0.0000   0.0000   0.0000   0.0000

          k = 0.4942-0.5706-0.2053 (  2206 PWs)   bands (ev):

   -19.6973 -19.6971  -6.8683  -6.8554  -6.0257  -6.0145  -5.3992  -5.3924
    -3.1393  -3.1389  -2.7984  -2.7966  -2.3713  -2.3682   6.1156   6.1298
     7.0346   7.0396   7.1657   7.1728   7.4519   7.4581   8.2234   8.2596
     8.8217   8.8291   9.0933   9.0987   9.5738   9.5811  10.1241  10.1285
    11.3981  11.3986  11.5994  11.6001  11.8693  11.8712  12.3332  12.3353
    14.0181  14.0267  17.4355  17.4362  17.8718  17.8750

     occupation numbers 
     0.0625   0.0625   0.0625   0.0625   0.0625   0.0625   0.0625   0.0625
     0.0625   0.0625   0.0625   0.0625   0.0625   0.0625   0.0625   0.0625
     0.0625   0.0625   0.0625   0.0625   0.0625   0.0625   0.0625   0.0625
     0.0625   0.0625   0.0625   0.0625   0.0625   0.0625   0.0625   0.0625
     0.0623   0.0623   0.0611   0.0611   0.0536   0.0535   0.0184   0.0182
     0.0000   0.0000   0.0000   0.0000   0.0000   0.0000

          k = 0.0000 0.0000-0.6160 (  2186 PWs)   bands (ev):

   -19.6995 -19.6988  -6.4998  -6.4821  -5.9236  -5.9113  -5.9094  -5.9079
    -2.8733  -2.8712  -2.8701  -2.8694  -2.6993  -2.6977   6.3293   6.3412
     7.2470   7.2508   7.2643   7.2717   7.8690   7.8971   8.1221   8.1225
     8.1503   8.1508   9.6679   9.6683   9.6759   9.6774   9.7307   9.7433
    11.6179  11.6201  11.6658  11.6663  11.6691  11.6701  13.2502  13.2514
    13.2781  13.2795  17.1224  17.1230  17.1246  17.1255

     occupation numbers 
     0.0313   0.0313   0.0313   0.0313   0.0313   0.0313   0.0313   0.0313
     0.0313   0.0313   0.0313   0.0313   0.0313   0.0313   0.0313   0.0313
     0.0313   0.0313   0.0313   0.0313   0.0313   0.0313   0.0313   0.0313
     0.0313   0.0313   0.0313   0.0313   0.0313   0.0313   0.0313   0.0313
     0.0304   0.0304   0.0301   0.0301   0.0300   0.0300   0.0000   0.0000
     0.0000   0.0000   0.0000   0.0000   0.0000   0.0000

          k =-0.2471 0.1427-0.1027 (  2181 PWs)   bands (ev):

   -19.7635 -19.6410  -6.7120  -6.2705  -5.9113  -5.8243  -5.5885  -5.4536
    -3.5631  -3.3722  -2.9136  -2.8902  -2.8276  -2.7466   5.5750   6.9022
     7.0526   7.0548   7.3597   7.5295   7.5961   7.8417   7.8826   8.6339
     8.7337   9.3631   9.6810   9.8221   9.8688  10.0505  10.3955  10.4074
    11.0484  11.0800  11.1625  11.8938  11.9457  12.0074  12.3680  12.4280
    14.3284  14.3377  15.8210  16.0772  16.9764  17.2722

     occupation numbers 
     0.0625   0.0625   0.0625   0.0625   0.0625   0.0625   0.0625   0.0625
     0.0625   0.0625   0.0625   0.0625   0.0625   0.0625   0.0625   0.0625
     0.0625   0.0625   0.0625   0.0625   0.0625   0.0625   0.0625   0.0625
     0.0625   0.0625   0.0625   0.0625   0.0625   0.0625   0.0625   0.0625
     0.0625   0.0625   0.0625   0.0523   0.0493   0.0451   0.0159   0.0120
     0.0000   0.0000   0.0000   0.0000   0.0000   0.0000

          k = 0.0000 0.2853 0.1027 (  2181 PWs)   bands (ev):

   -19.7635 -19.6410  -6.7120  -6.2706  -5.9121  -5.8228  -5.5882  -5.4546
    -3.5625  -3.3725  -2.9134  -2.8904  -2.8280  -2.7463   5.5746   6.9012
     7.0489   7.0591   7.3608   7.5323   7.5932   7.8401   7.8841   8.6353
     8.7312   9.3647   9.6842   9.8180   9.8697  10.0491  10.3962  10.4073
    11.0485  11.0797  11.1627  11.8940  11.9457  12.0075  12.3688  12.4272
    14.3293  14.3368  15.8215  16.0763  16.9762  17.2716

     occupation numbers 
     0.0625   0.0625   0.0625   0.0625   0.0625   0.0625   0.0625   0.0625
     0.0625   0.0625   0.0625   0.0625   0.0625   0.0625   0.0625   0.0625
     0.0625   0.0625   0.0625   0.0625   0.0625   0.0625   0.0625   0.0625
     0.0625   0.0625   0.0625   0.0625   0.0625   0.0625   0.0625   0.0625
     0.0625   0.0625   0.0625   0.0523   0.0493   0.0451   0.0158   0.0121
     0.0000   0.0000   0.0000   0.0000   0.0000   0.0000

          k = 0.4942-0.2853 0.2053 (  2202 PWs)   bands (ev):

   -19.6999 -19.6992  -6.7132  -6.6985  -5.9373  -5.9299  -5.4993  -5.4913
    -3.3626  -3.3598  -2.7724  -2.7702  -2.4978  -2.4952   6.1080   6.1202
     7.2418   7.2572   7.3067   7.3267   7.6711   7.6962   8.0014   8.0266
     8.2115   8.2396   9.5557   9.5585   9.8937   9.9056  10.2996  10.3099
    11.4873  11.4880  11.5665  11.5688  11.7309  11.7351  13.3079  13.3366
    13.3963  13.4253  16.8401  16.8450  17.1385  17.1422

     occupation numbers 
     0.0313   0.0313   0.0313   0.0313   0.0313   0.0313   0.0313   0.0313
     0.0313   0.0313   0.0313   0.0313   0.0313   0.0313   0.0313   0.0313
     0.0313   0.0313   0.0313   0.0313   0.0313   0.0313   0.0313   0.0313
     0.0313   0.0313   0.0313   0.0313   0.0312   0.0312   0.0312   0.0312
     0.0310   0.0310   0.0307   0.0307   0.0293   0.0293   0.0000   0.0000
     0.0000   0.0000   0.0000   0.0000   0.0000   0.0000

          k = 0.0000-0.5706-0.2053 (  2202 PWs)   bands (ev):

   -19.6999 -19.6992  -6.7130  -6.6989  -5.9357  -5.9310  -5.5010  -5.4901
    -3.3617  -3.3601  -2.7730  -2.7698  -2.4976  -2.4952   6.1081   6.1188
     7.2442   7.2548   7.3045   7.3270   7.6716   7.7016   8.0011   8.0221
     8.2144   8.2385   9.5585   9.5595   9.8924   9.9009  10.3010  10.3107
    11.4872  11.4878  11.5663  11.5688  11.7315  11.7352  13.3089  13.3369
    13.3953  13.4250  16.8397  16.8458  17.1374  17.1417

     occupation numbers 
     0.0313   0.0313   0.0313   0.0313   0.0313   0.0313   0.0313   0.0313
     0.0313   0.0313   0.0313   0.0313   0.0313   0.0313   0.0313   0.0313
     0.0313   0.0313   0.0313   0.0313   0.0313   0.0313   0.0313   0.0313
     0.0313   0.0313   0.0313   0.0313   0.0312   0.0312   0.0312   0.0312
     0.0310   0.0310   0.0307   0.0307   0.0293   0.0293   0.0000   0.0000
     0.0000   0.0000   0.0000   0.0000   0.0000   0.0000

          k =-0.2471-0.1427-0.2053 (  2195 PWs)   bands (ev):

   -19.7586 -19.6434  -6.8374  -6.2101  -6.0464  -5.8038  -5.6328  -5.4282
    -3.3894  -3.2486  -3.0821  -2.8726  -2.7952  -2.5484   5.6079   6.8656
     6.9484   7.1396   7.2639   7.4976   7.5109   7.8874   7.8944   8.7039
     8.9235   8.9314   9.3168   9.8134  10.0079  10.1176  10.2212  10.3188
    10.6981  11.4054  11.4310  11.5215  11.9444  12.0114  12.1852  12.7488
    13.6505  14.8006  15.9972  16.1993  17.0410  17.5410

     occupation numbers 
     0.0625   0.0625   0.0625   0.0625   0.0625   0.0625   0.0625   0.0625
     0.0625   0.0625   0.0625   0.0625   0.0625   0.0625   0.0625   0.0625
     0.0625   0.0625   0.0625   0.0625   0.0625   0.0625   0.0625   0.0625
     0.0625   0.0625   0.0625   0.0625   0.0625   0.0625   0.0625   0.0625
     0.0625   0.0623   0.0622   0.0618   0.0494   0.0448   0.0305   0.0015
     0.0000   0.0000   0.0000   0.0000   0.0000   0.0000

          k = 0.0000-0.2853 0.2053 (  2195 PWs)   bands (ev):

   -19.7586 -19.6434  -6.8374  -6.2102  -6.0463  -5.8038  -5.6328  -5.4282
    -3.3894  -3.2486  -3.0821  -2.8725  -2.7953  -2.5484   5.6079   6.8656
     6.9484   7.1396   7.2639   7.4966   7.5118   7.8871   7.8947   8.7038
     8.9248   8.9301   9.3168   9.8133  10.0079  10.1176  10.2212  10.3188
    10.6981  11.4054  11.4310  11.5215  11.9444  12.0114  12.1853  12.7488
    13.6505  14.8006  15.9972  16.1993  17.0410  17.5409

     occupation numbers 
     0.0625   0.0625   0.0625   0.0625   0.0625   0.0625   0.0625   0.0625
     0.0625   0.0625   0.0625   0.0625   0.0625   0.0625   0.0625   0.0625
     0.0625   0.0625   0.0625   0.0625   0.0625   0.0625   0.0625   0.0625
     0.0625   0.0625   0.0625   0.0625   0.0625   0.0625   0.0625   0.0625
     0.0625   0.0623   0.0622   0.0618   0.0494   0.0448   0.0305   0.0015
     0.0000   0.0000   0.0000   0.0000   0.0000   0.0000

          k = 0.4942-0.5706 0.1027 (  2198 PWs)   bands (ev):

   -19.7183 -19.6779  -6.9396  -6.6278  -6.1131  -5.8686  -5.4854  -5.3515
    -3.2861  -3.2382  -2.8620  -2.6929  -2.5145  -2.3718   5.9389   6.3011
     6.9069   7.0541   7.2569   7.3664   7.5819   7.8304   7.9479   8.1251
     8.3768   8.9387   9.1813   9.3718   9.6860   9.8390   9.9918  10.3851
    11.1139  11.5557  11.6442  11.7158  11.8466  11.8673  12.3497  12.7537
    13.4387  14.3765  16.9120  17.1190  17.3179  18.0217

     occupation numbers 
     0.0625   0.0625   0.0625   0.0625   0.0625   0.0625   0.0625   0.0625
     0.0625   0.0625   0.0625   0.0625   0.0625   0.0625   0.0625   0.0625
     0.0625   0.0625   0.0625   0.0625   0.0625   0.0625   0.0625   0.0625
     0.0625   0.0625   0.0625   0.0625   0.0625   0.0625   0.0625   0.0625
     0.0625   0.0615   0.0605   0.0591   0.0546   0.0537   0.0172   0.0014
     0.0000   0.0000   0.0000   0.0000   0.0000   0.0000

          k =-0.7412 0.1427-0.1027 (  2198 PWs)   bands (ev):

   -19.7183 -19.6779  -6.9391  -6.6288  -6.1119  -5.8695  -5.4844  -5.3523
    -3.2853  -3.2383  -2.8618  -2.6940  -2.5139  -2.3722   5.9401   6.2992
     6.9102   7.0539   7.2505   7.3697   7.5814   7.8287   7.9681   8.1012
     8.3836   8.9325   9.1861   9.3731   9.6877   9.8377   9.9920  10.3838
    11.1146  11.5545  11.6434  11.7162  11.8461  11.8685  12.3501  12.7540
    13.4387  14.3768  16.9101  17.1218  17.3173  18.0216

     occupation numbers 
     0.0625   0.0625   0.0625   0.0625   0.0625   0.0625   0.0625   0.0625
     0.0625   0.0625   0.0625   0.0625   0.0625   0.0625   0.0625   0.0625
     0.0625   0.0625   0.0625   0.0625   0.0625   0.0625   0.0625   0.0625
     0.0625   0.0625   0.0625   0.0625   0.0625   0.0625   0.0625   0.0625
     0.0625   0.0615   0.0605   0.0591   0.0546   0.0536   0.0172   0.0014
     0.0000   0.0000   0.0000   0.0000   0.0000   0.0000

          k = 0.2471-0.7133-0.1027 (  2198 PWs)   bands (ev):

   -19.7183 -19.6779  -6.9393  -6.6286  -6.1124  -5.8691  -5.4840  -5.3528
    -3.2853  -3.2382  -2.8620  -2.6935  -2.5139  -2.3723   5.9398   6.2991
     6.9093   7.0550   7.2514   7.3687   7.5812   7.8272   7.9694   8.1024
     8.3831   8.9322   9.1865   9.3745   9.6853   9.8391   9.9913  10.3840
    11.1147  11.5550  11.6432  11.7150  11.8468  11.8688  12.3501  12.7540
    13.4387  14.3767  16.9109  17.1207  17.3173  18.0212

     occupation numbers 
     0.0625   0.0625   0.0625   0.0625   0.0625   0.0625   0.0625   0.0625
     0.0625   0.0625   0.0625   0.0625   0.0625   0.0625   0.0625   0.0625
     0.0625   0.0625   0.0625   0.0625   0.0625   0.0625   0.0625   0.0625
     0.0625   0.0625   0.0625   0.0625   0.0625   0.0625   0.0625   0.0625
     0.0625   0.0615   0.0605   0.0591   0.0546   0.0536   0.0172   0.0014
     0.0000   0.0000   0.0000   0.0000   0.0000   0.0000

          k =-0.7412-0.1427 0.1027 (  2198 PWs)   bands (ev):

   -19.7183 -19.6779  -6.9398  -6.6276  -6.1136  -5.8682  -5.4850  -5.3520
    -3.2861  -3.2381  -2.8622  -2.6925  -2.5145  -2.3719   5.9385   6.3009
     6.9061   7.0553   7.2577   7.3653   7.5816   7.8290   7.9490   8.1263
     8.3763   8.9384   9.1817   9.3730   9.6837   9.8403   9.9910  10.3854
    11.1139  11.5561  11.6439  11.7147  11.8474  11.8677  12.3497  12.7537
    13.4387  14.3765  16.9127  17.1179  17.3178  18.0212

     occupation numbers 
     0.0625   0.0625   0.0625   0.0625   0.0625   0.0625   0.0625   0.0625
     0.0625   0.0625   0.0625   0.0625   0.0625   0.0625   0.0625   0.0625
     0.0625   0.0625   0.0625   0.0625   0.0625   0.0625   0.0625   0.0625
     0.0625   0.0625   0.0625   0.0625   0.0625   0.0625   0.0625   0.0625
     0.0625   0.0615   0.0605   0.0591   0.0546   0.0536   0.0172   0.0014
     0.0000   0.0000   0.0000   0.0000   0.0000   0.0000

          k = 0.2471 0.7133 0.1027 (  2198 PWs)   bands (ev):

   -19.7187 -19.6782  -6.9346  -6.6290  -6.1086  -5.8780  -5.4894  -5.3463
    -3.2857  -3.2380  -2.8628  -2.6916  -2.5141  -2.3705   5.9324   6.3079
     6.8999   7.0511   7.2550   7.3597   7.5862   7.8323   7.9482   8.1244
     8.3813   8.9365   9.1871   9.3749   9.6830   9.8413   9.9929  10.3821
    11.1134  11.5566  11.6440  11.7149  11.8468  11.8690  12.3491  12.7535
    13.4407  14.3755  16.9120  17.1180  17.3176  18.0215

     occupation numbers 
     0.0625   0.0625   0.0625   0.0625   0.0625   0.0625   0.0625   0.0625
     0.0625   0.0625   0.0625   0.0625   0.0625   0.0625   0.0625   0.0625
     0.0625   0.0625   0.0625   0.0625   0.0625   0.0625   0.0625   0.0625
     0.0625   0.0625   0.0625   0.0625   0.0625   0.0625   0.0625   0.0625
     0.0625   0.0615   0.0605   0.0591   0.0546   0.0536   0.0172   0.0014
     0.0000   0.0000   0.0000   0.0000   0.0000   0.0000

          k = 0.2471-0.4280 0.0000 (  2203 PWs)   bands (ev):

   -19.7282 -19.6705  -6.8304  -6.6207  -6.0293  -5.9579  -5.4136  -5.3376
    -3.4902  -3.2799  -2.7870  -2.6962  -2.5527  -2.5429   5.9120   6.3503
     7.1069   7.1551   7.2545   7.3423   7.4830   7.7503   7.8451   8.2136
     8.4511   8.9563   9.4406   9.4909   9.7969   9.8159  10.0862  10.3860
    11.4147  11.4249  11.4535  11.6746  11.6852  11.9652  12.2971  13.3370
    13.4088  14.1710  16.4427  16.9988  17.4262  17.9332

     occupation numbers 
     0.0625   0.0625   0.0625   0.0625   0.0625   0.0625   0.0625   0.0625
     0.0625   0.0625   0.0625   0.0625   0.0625   0.0625   0.0625   0.0625
     0.0625   0.0625   0.0625   0.0625   0.0625   0.0625   0.0625   0.0625
     0.0625   0.0625   0.0625   0.0625   0.0625   0.0625   0.0625   0.0625
     0.0622   0.0622   0.0621   0.0599   0.0597   0.0480   0.0212   0.0000
     0.0000   0.0000   0.0000   0.0000   0.0000   0.0000

          k =-0.4942 0.0000 0.0000 (  2203 PWs)   bands (ev):

   -19.7282 -19.6705  -6.8304  -6.6207  -6.0293  -5.9579  -5.4136  -5.3376
    -3.4902  -3.2799  -2.7870  -2.6962  -2.5526  -2.5430   5.9120   6.3503
     7.1069   7.1554   7.2538   7.3428   7.4830   7.7504   7.8450   8.2136
     8.4511   8.9562   9.4406   9.4909   9.7970   9.8157  10.0863  10.3860
    11.4147  11.4249  11.4535  11.6746  11.6852  11.9652  12.2971  13.3370
    13.4088  14.1710  16.4427  16.9988  17.4262  17.9323

     occupation numbers 
     0.0625   0.0625   0.0625   0.0625   0.0625   0.0625   0.0625   0.0625
     0.0625   0.0625   0.0625   0.0625   0.0625   0.0625   0.0625   0.0625
     0.0625   0.0625   0.0625   0.0625   0.0625   0.0625   0.0625   0.0625
     0.0625   0.0625   0.0625   0.0625   0.0625   0.0625   0.0625   0.0625
     0.0622   0.0622   0.0621   0.0599   0.0597   0.0480   0.0212   0.0000
     0.0000   0.0000   0.0000   0.0000   0.0000   0.0000

          k = 0.4942 0.2853 0.4107 (  2202 PWs)   bands (ev):

   -19.7250 -19.6684  -7.1490  -6.4410  -6.2269  -5.9344  -5.5105  -5.2566
    -3.1754  -3.1151  -3.0258  -2.6393  -2.4683  -2.2104   5.8364   6.3392
     6.4804   6.9433   7.1716   7.2795   7.9093   7.9362   8.1761   8.3323
     8.6036   8.6217   8.6522   9.4327   9.6919  10.0544  10.0934  10.4616
    10.6632  11.3089  11.5795  11.7679  11.8741  11.9845  12.0806  12.4695
    13.3378  14.8126  17.0465  17.2711  17.5264  17.6124

     occupation numbers 
     0.0313   0.0313   0.0313   0.0313   0.0313   0.0313   0.0313   0.0313
     0.0313   0.0313   0.0313   0.0313   0.0313   0.0313   0.0313   0.0313
     0.0313   0.0313   0.0313   0.0313   0.0313   0.0313   0.0313   0.0313
     0.0313   0.0313   0.0313   0.0313   0.0313   0.0312   0.0312   0.0312
     0.0312   0.0312   0.0307   0.0288   0.0267   0.0234   0.0197   0.0049
     0.0000   0.0000   0.0000   0.0000   0.0000   0.0000

          k = 0.0000 0.5706-0.4107 (  2202 PWs)   bands (ev):

   -19.7250 -19.6684  -7.1489  -6.4410  -6.2268  -5.9344  -5.5106  -5.2566
    -3.1754  -3.1151  -3.0258  -2.6393  -2.4683  -2.2104   5.8364   6.3392
     6.4804   6.9433   7.1716   7.2795   7.9087   7.9368   8.1762   8.3322
     8.6036   8.6217   8.6522   9.4327   9.6919  10.0545  10.0933  10.4616
    10.6632  11.3089  11.5795  11.7679  11.8741  11.9846  12.0806  12.4695
    13.3378  14.8126  17.0465  17.2712  17.5264  17.6124

     occupation numbers 
     0.0313   0.0313   0.0313   0.0313   0.0313   0.0313   0.0313   0.0313
     0.0313   0.0313   0.0313   0.0313   0.0313   0.0313   0.0313   0.0313
     0.0313   0.0313   0.0313   0.0313   0.0313   0.0313   0.0313   0.0313
     0.0313   0.0313   0.0313   0.0313   0.0313   0.0312   0.0312   0.0312
     0.0312   0.0312   0.0307   0.0288   0.0267   0.0234   0.0197   0.0049
     0.0000   0.0000   0.0000   0.0000   0.0000   0.0000

          k = 0.7412-0.4280 0.0000 (  2204 PWs)   bands (ev):

   -19.7279 -19.6704  -6.7178  -6.5795  -6.1279  -5.8107  -5.6501  -5.5179
    -3.1506  -3.0732  -3.0328  -2.6630  -2.6412  -2.5682   5.9576   6.5285
     7.1201   7.2250   7.2498   7.3623   7.4775   7.6868   8.0287   8.1646
     8.4740   8.8687   9.4924   9.5179   9.6328   9.7036   9.8785  10.2377
    11.4113  11.4252  11.5224  11.7047  11.7312  11.8973  12.3078  13.2606
    13.3232  14.1960  16.6967  16.7275  17.5946  17.8002

     occupation numbers 
     0.0625   0.0625   0.0625   0.0625   0.0625   0.0625   0.0625   0.0625
     0.0625   0.0625   0.0625   0.0625   0.0625   0.0625   0.0625   0.0625
     0.0625   0.0625   0.0625   0.0625   0.0625   0.0625   0.0625   0.0625
     0.0625   0.0625   0.0625   0.0625   0.0625   0.0625   0.0625   0.0625
     0.0623   0.0622   0.0618   0.0593   0.0587   0.0521   0.0203   0.0000
     0.0000   0.0000   0.0000   0.0000   0.0000   0.0000

          k = 0.0000-0.8559 0.0000 (  2204 PWs)   bands (ev):

   -19.7280 -19.6703  -6.7155  -6.5840  -6.1252  -5.8087  -5.6479  -5.5229
    -3.1513  -3.0731  -3.0328  -2.6616  -2.6403  -2.5694   5.9512   6.5329
     7.1185   7.2258   7.2544   7.3635   7.4722   7.6898   8.0288   8.1696
     8.4789   8.8616   9.4909   9.5106   9.6331   9.7041   9.8785  10.2398
    11.4122  11.4262  11.5228  11.7050  11.7320  11.8962  12.3072  13.2615
    13.3242  14.1944  16.6960  16.7280  17.5953  17.8004

     occupation numbers 
     0.0625   0.0625   0.0625   0.0625   0.0625   0.0625   0.0625   0.0625
     0.0625   0.0625   0.0625   0.0625   0.0625   0.0625   0.0625   0.0625
     0.0625   0.0625   0.0625   0.0625   0.0625   0.0625   0.0625   0.0625
     0.0625   0.0625   0.0625   0.0625   0.0625   0.0625   0.0625   0.0625
     0.0622   0.0622   0.0618   0.0593   0.0587   0.0522   0.0204   0.0000
     0.0000   0.0000   0.0000   0.0000   0.0000   0.0000

          k = 0.4942-0.2853-0.1027 (  2211 PWs)   bands (ev):

   -19.7188 -19.6782  -6.9507  -6.5271  -6.3034  -5.6745  -5.6064  -5.3221
    -3.2986  -3.1524  -3.0119  -2.5902  -2.5466  -2.3638   5.9641   6.2751
     6.8591   7.0413   7.2436   7.3078   7.6035   7.9021   8.0023   8.0652
     8.4216   9.0578   9.1891   9.4247   9.5674   9.7019  10.0440  10.4032
    11.1284  11.5907  11.7180  11.7236  11.7828  11.8029  12.3015  12.7712
    13.4861  14.3573  16.8910  16.9398  17.5887  17.9350

     occupation numbers 
     0.0625   0.0625   0.0625   0.0625   0.0625   0.0625   0.0625   0.0625
     0.0625   0.0625   0.0625   0.0625   0.0625   0.0625   0.0625   0.0625
     0.0625   0.0625   0.0625   0.0625   0.0625   0.0625   0.0625   0.0625
     0.0625   0.0625   0.0625   0.0625   0.0625   0.0625   0.0625   0.0625
     0.0625   0.0612   0.0590   0.0589   0.0571   0.0564   0.0208   0.0012
     0.0000   0.0000   0.0000   0.0000   0.0000   0.0000

          k = 0.0000-0.5706 0.1027 (  2211 PWs)   bands (ev):

   -19.7183 -19.6779  -6.9555  -6.5260  -6.3041  -5.6702  -5.6017  -5.3268
    -3.2987  -3.1525  -3.0121  -2.5911  -2.5467  -2.3652   5.9701   6.2679
     6.8655   7.0445   7.2478   7.3104   7.6012   7.9003   8.0041   8.0634
     8.4174   9.0614   9.1842   9.4264   9.5692   9.6936  10.0428  10.4071
    11.1289  11.5903  11.7170  11.7232  11.7834  11.8027  12.3020  12.7713
    13.4841  14.3584  16.8913  16.9397  17.5884  17.9351

     occupation numbers 
     0.0625   0.0625   0.0625   0.0625   0.0625   0.0625   0.0625   0.0625
     0.0625   0.0625   0.0625   0.0625   0.0625   0.0625   0.0625   0.0625
     0.0625   0.0625   0.0625   0.0625   0.0625   0.0625   0.0625   0.0625
     0.0625   0.0625   0.0625   0.0625   0.0625   0.0625   0.0625   0.0625
     0.0625   0.0612   0.0590   0.0589   0.0571   0.0564   0.0208   0.0012
     0.0000   0.0000   0.0000   0.0000   0.0000   0.0000

          k = 0.7412 0.4280 0.3080 (  2210 PWs)   bands (ev):

   -19.7181 -19.6777  -6.8913  -6.4328  -6.2822  -5.7759  -5.7324  -5.4538
    -3.0553  -3.0336  -2.9505  -2.7156  -2.6063  -2.4152   6.0283   6.4101
     6.9569   7.0319   7.2929   7.2969   7.6222   7.9194   8.0509   8.0963
     8.3936   9.0311   9.0430   9.5390   9.5661   9.6068   9.6846  10.2425
    11.1849  11.6112  11.7038  11.7133  11.8266  11.8680  12.2597  12.7191
    13.4322  14.3278  17.0666  17.0731  17.5567  17.9095

     occupation numbers 
     0.0625   0.0625   0.0625   0.0625   0.0625   0.0625   0.0625   0.0625
     0.0625   0.0625   0.0625   0.0625   0.0625   0.0625   0.0625   0.0625
     0.0625   0.0625   0.0625   0.0625   0.0625   0.0625   0.0625   0.0625
     0.0625   0.0625   0.0625   0.0625   0.0625   0.0625   0.0625   0.0625
     0.0625   0.0609   0.0593   0.0591   0.0555   0.0536   0.0242   0.0019
     0.0000   0.0000   0.0000   0.0000   0.0000   0.0000

          k = 0.0000 0.8559-0.3080 (  2210 PWs)   bands (ev):

   -19.7181 -19.6777  -6.8913  -6.4328  -6.2822  -5.7758  -5.7324  -5.4538
    -3.0553  -3.0336  -2.9505  -2.7156  -2.6063  -2.4152   6.0283   6.4101
     6.9570   7.0319   7.2921   7.2977   7.6222   7.9195   8.0524   8.0945
     8.3939   9.0315   9.0426   9.5390   9.5662   9.6068   9.6847  10.2425
    11.1849  11.6112  11.7038  11.7133  11.8266  11.8680  12.2597  12.7190
    13.4322  14.3278  17.0667  17.0730  17.5567  17.9095

     occupation numbers 
     0.0625   0.0625   0.0625   0.0625   0.0625   0.0625   0.0625   0.0625
     0.0625   0.0625   0.0625   0.0625   0.0625   0.0625   0.0625   0.0625
     0.0625   0.0625   0.0625   0.0625   0.0625   0.0625   0.0625   0.0625
     0.0625   0.0625   0.0625   0.0625   0.0625   0.0625   0.0625   0.0625
     0.0625   0.0609   0.0593   0.0591   0.0555   0.0536   0.0242   0.0019
     0.0000   0.0000   0.0000   0.0000   0.0000   0.0000

          k = 0.2471 0.7133-0.2053 (  2206 PWs)   bands (ev):

   -19.6973 -19.6971  -6.8682  -6.8555  -6.0254  -6.0148  -5.3992  -5.3923
    -3.1393  -3.1389  -2.7985  -2.7965  -2.3710  -2.3684   6.1156   6.1298
     7.0338   7.0404   7.1660   7.1725   7.4515   7.4585   8.2231   8.2600
     8.8218   8.8289   9.0933   9.0988   9.5751   9.5799  10.1246  10.1280
    11.3980  11.3986  11.5996  11.6000  11.8694  11.8711  12.3333  12.3352
    14.0181  14.0267  17.4352  17.4365  17.8726  17.8742

     occupation numbers 
     0.0625   0.0625   0.0625   0.0625   0.0625   0.0625   0.0625   0.0625
     0.0625   0.0625   0.0625   0.0625   0.0625   0.0625   0.0625   0.0625
     0.0625   0.0625   0.0625   0.0625   0.0625   0.0625   0.0625   0.0625
     0.0625   0.0625   0.0625   0.0625   0.0625   0.0625   0.0625   0.0625
     0.0623   0.0623   0.0611   0.0611   0.0536   0.0535   0.0184   0.0182
     0.0000   0.0000   0.0000   0.0000   0.0000   0.0000

          k =-0.7412-0.1427-0.2053 (  2206 PWs)   bands (ev):

   -19.6969 -19.6969  -6.8731  -6.8571  -6.0161  -6.0147  -5.4029  -5.3920
    -3.1398  -3.1390  -2.7973  -2.7964  -2.3740  -2.3686   6.1149   6.1280
     7.0394   7.0428   7.1674   7.1818   7.4576   7.4589   8.2195   8.2549
     8.8197   8.8207   9.0961   9.0969   9.5710   9.5745  10.1288  10.1299
    11.3995  11.4001  11.5995  11.6001  11.8693  11.8695  12.3333  12.3356
    14.0178  14.0263  17.4353  17.4358  17.8728  17.8752

     occupation numbers 
     0.0625   0.0625   0.0625   0.0625   0.0625   0.0625   0.0625   0.0625
     0.0625   0.0625   0.0625   0.0625   0.0625   0.0625   0.0625   0.0625
     0.0625   0.0625   0.0625   0.0625   0.0625   0.0625   0.0625   0.0625
     0.0625   0.0625   0.0625   0.0625   0.0625   0.0625   0.0625   0.0625
     0.0623   0.0623   0.0611   0.0611   0.0536   0.0535   0.0184   0.0182
     0.0000   0.0000   0.0000   0.0000   0.0000   0.0000

     the Fermi energy is    12.1771 ev

!    total energy              =    -538.31309704 Ry
     Harris-Foulkes estimate   =    -538.31309704 Ry
     estimated scf accuracy    <          4.9E-09 Ry

     The total energy is the sum of the following terms:

     one-electron contribution =     -32.89082853 Ry
     hartree contribution      =      83.60134944 Ry
     xc contribution           =    -199.55444416 Ry
     ewald contribution        =    -389.44315552 Ry
     Hubbard energy            =       0.01995732 Ry
     smearing contrib. (-TS)   =      -0.04597559 Ry

     convergence has been achieved in   7 iterations

     init_run     :      6.89s CPU      7.03s WALL (       1 calls)
     electrons    :    227.40s CPU    229.98s WALL (       1 calls)

     Called by init_run:
     wfcinit      :      0.00s CPU      0.00s WALL (       1 calls)
     potinit      :      0.28s CPU      0.31s WALL (       1 calls)

     Called by electrons:
     c_bands      :    174.12s CPU    175.48s WALL (       7 calls)
     sum_band     :     38.49s CPU     38.95s WALL (       7 calls)
     v_of_rho     :      2.04s CPU      2.06s WALL (       8 calls)
     v_h          :      0.11s CPU      0.11s WALL (       8 calls)
     v_xc         :      1.93s CPU      1.95s WALL (       8 calls)
     newd         :     14.03s CPU     14.13s WALL (       8 calls)
     mix_rho      :      0.17s CPU      0.17s WALL (       7 calls)

     Called by c_bands:
     init_us_2    :      1.70s CPU      1.70s WALL (     504 calls)
     cegterg      :    169.23s CPU    170.29s WALL (     252 calls)

     Called by sum_band:
     sum_band:bec :      0.19s CPU      0.19s WALL (     252 calls)
     addusdens    :      7.93s CPU      7.94s WALL (       7 calls)

     Called by *egterg:
     h_psi        :    125.07s CPU    125.94s WALL (    1196 calls)
     s_psi        :      6.71s CPU      6.70s WALL (    1196 calls)
     g_psi        :      0.60s CPU      0.60s WALL (     944 calls)
     cdiaghg      :     13.94s CPU     13.96s WALL (    1160 calls)
     cegterg:over :      8.76s CPU      8.83s WALL (     944 calls)
     cegterg:upda :      5.00s CPU      5.00s WALL (     944 calls)
     cegterg:last :      3.58s CPU      3.60s WALL (     288 calls)

     Called by h_psi:
     h_psi:vloc   :    101.33s CPU    102.08s WALL (    1196 calls)
     h_psi:vnl    :     14.58s CPU     14.64s WALL (    1196 calls)
     add_vuspsi   :      6.75s CPU      6.77s WALL (    1196 calls)
     vhpsi        :      8.93s CPU      8.98s WALL (    1196 calls)

     General routines
     calbec       :     17.35s CPU     17.47s WALL (    2896 calls)
     fft          :      1.77s CPU      1.93s WALL (     123 calls)
     ffts         :      0.04s CPU      0.09s WALL (      15 calls)
     fftw         :    103.95s CPU    104.74s WALL (   70740 calls)
     interpolate  :      0.26s CPU      0.44s WALL (      15 calls)
     davcio       :      0.00s CPU      0.55s WALL (     540 calls)

     Parallel routines
     fft_scatter  :     34.00s CPU     34.95s WALL (   70878 calls)
     Hubbard U routines
     new_ns       :      1.67s CPU      1.92s WALL (       7 calls)
     vhpsi        :      8.93s CPU      8.98s WALL (    1196 calls)

     PWSCF        :  3m54.72s CPU     3m57.60s WALL


   This run was terminated on:   8:15: 3  11Nov2012            

=------------------------------------------------------------------------------=
