   JOB DONE.
=------------------------------------------------------------------------------=

     Program PWSCF v.5.0.1 starts on 11Nov2012 at  8:19:37 

     This program is part of the open-source Quantum ESPRESSO suite
     for quantum simulation of materials; please cite
         "P. Giannozzi et al., J. Phys.:Condens. Matter 21 395502 (2009);
          URL http://www.quantum-espresso.org", 
     in publications or presentations arising from this work. More details at
     http://www.quantum-espresso.org/quote.php

     Parallel version (MPI), running on     2 processors
     R & G space division:  proc/pool =    2

     Current dimensions of program PWSCF are:
     Max number of different atomic species (ntypx) = 10
     Max number of k-points (npk) =  40000
     Max angular momentum in pseudopotentials (lmaxx) =  3
     Reading input from CoLaO_U0_a15.in
               file Co.pbe-nd-rrkjus.UPF: wavefunction(s)  4S 3D renormalized
               file O.pbe-rrkjus.UPF: wavefunction(s)  2S renormalized
               file O.pbe-rrkjus.UPF: wavefunction(s)  2S renormalized

     Subspace diagonalization in iterative solution of the eigenvalue problem:
     a serial algorithm will be used


     Parallelization info
     --------------------
     sticks:   dense  smooth     PW     G-vecs:    dense   smooth      PW
     Min        1112     444    131                34808     8786    1448
     Max        1113     445    132                34809     8787    1449
     Sum        2225     889    263                69617    17573    2897


     Title: 
     GGA + U, U = 1D-40, alpha = 0.150                                          


     bravais-lattice index     =            5
     lattice parameter (alat)  =      10.3292  a.u.
     unit-cell volume          =     793.0599 (a.u.)^3
     number of atoms/cell      =           10
     number of atomic types    =            4
     number of electrons       =        76.00
     number of Kohn-Sham states=           46
     kinetic-energy cutoff     =      30.0000  Ry
     charge density cutoff     =     300.0000  Ry
     convergence threshold     =      1.0E-08
     mixing beta               =       0.2000
     number of iterations used =            8  plain     mixing
     Exchange-correlation      =  SLA  PW   PBE  PBE ( 1 4 3 4 0)
     EXX-fraction              =        0.00

     celldm(1)=  10.329242  celldm(2)=   0.000000  celldm(3)=   0.000000
     celldm(4)=   0.488100  celldm(5)=   0.000000  celldm(6)=   0.000000

     crystal axes: (cart. coord. in units of alat)
               a(1) = (   0.505915  -0.292090   0.811624 )  
               a(2) = (   0.000000   0.584180   0.811624 )  
               a(3) = (  -0.505915  -0.292090   0.811624 )  

     reciprocal axes: (cart. coord. in units 2 pi/alat)
               b(1) = (  0.988308 -0.570600  0.410699 )  
               b(2) = (  0.000000  1.141200  0.410699 )  
               b(3) = ( -0.988308 -0.570600  0.410699 )  


     PseudoPot. # 1 for Co read from file:
     /home/mcurnan/dft-course/Project1/example_LaCoO3/Co.pbe-nd-rrkjus.UPF
     MD5 check sum: 3e47a84addf5e975e0edeaeee2a73f59
     Pseudo is Ultrasoft + core correction, Zval =  9.0
     Generated by new atomic code, or converted to UPF format
     Using radial grid of  961 points,  6 beta functions with: 
                l(1) =   0
                l(2) =   0
                l(3) =   1
                l(4) =   1
                l(5) =   2
                l(6) =   2
     Q(r) pseudized with 0 coefficients 


     PseudoPot. # 2 for La read from file:
     /home/mcurnan/dft-course/Project1/example_LaCoO3/La.pbe-nsp-van.UPF
     MD5 check sum: b2f11743f52dde65f77d1302becd7929
     Pseudo is Ultrasoft + core correction, Zval = 11.0
     Generated by new atomic code, or converted to UPF format
     Using radial grid of  907 points,  6 beta functions with: 
                l(1) =   0
                l(2) =   0
                l(3) =   1
                l(4) =   1
                l(5) =   2
                l(6) =   2
     Q(r) pseudized with  6 coefficients,  rinner =    1.200   1.200   1.200
                                                       1.200   1.200

     PseudoPot. # 3 for O  read from file:
     /home/mcurnan/dft-course/Project1/example_LaCoO3/O.pbe-rrkjus.UPF
     MD5 check sum: 390ba29e75625707450f3bd3f0eb6be9
     Pseudo is Ultrasoft, Zval =  6.0
     Generated by new atomic code, or converted to UPF format
     Using radial grid of 1269 points,  4 beta functions with: 
                l(1) =   0
                l(2) =   0
                l(3) =   1
                l(4) =   1
     Q(r) pseudized with 0 coefficients 


     PseudoPot. # 4 for O  read from file:
     /home/mcurnan/dft-course/Project1/example_LaCoO3/O.pbe-rrkjus.UPF
     MD5 check sum: 390ba29e75625707450f3bd3f0eb6be9
     Pseudo is Ultrasoft, Zval =  6.0
     Generated by new atomic code, or converted to UPF format
     Using radial grid of 1269 points,  4 beta functions with: 
                l(1) =   0
                l(2) =   0
                l(3) =   1
                l(4) =   1
     Q(r) pseudized with 0 coefficients 


     atomic species   valence    mass     pseudopotential
        Co1            9.00     1.00000     Co( 1.00)
        La1           11.00     1.00000     La( 1.00)
        O1             6.00     1.00000     O ( 1.00)
        O2             6.00     1.00000     O ( 1.00)
 -----
     simplified LDA+U calculation, Hubbard_lmax = 2
     atomic species  L   Hubbard U  Hubbard alpha
        Co1          2    0.000000    0.000000
        La1          2    0.000000    0.000000
        O1           1    0.000000    0.150000
        O2           1    0.000000    0.000000
 -----

     No symmetry found


                                    s                        frac. trans.

      isym =  1     identity                                     

 cryst.   s( 1) = (     1          0          0      )
                  (     0          1          0      )
                  (     0          0          1      )

 cart.    s( 1) = (  1.0000000  0.0000000  0.0000000 )
                  (  0.0000000  1.0000000  0.0000000 )
                  (  0.0000000  0.0000000  1.0000000 )


     point group C_1 (1)    
     there are  1 classes
     the character table:

       E    
A      1.00

     the symmetry operations in each class:
     E        1

   Cartesian axes

     site n.     atom                  positions (alat units)
         1           Co1 tau(   1) = (   0.2228050  -0.1992639   1.0141240  )
         2           Co1 tau(   2) = (  -0.2831100   0.0928263   1.4199360  )
         3           La1 tau(   3) = (  -0.2831100   0.0928263   0.8112181  )
         4           La1 tau(   4) = (   0.2228050   0.3849164   1.2170300  )
         5           O1  tau(   5) = (   0.0000000   0.0000000   0.0000000  )
         6           O2  tau(   6) = (   0.0008601   0.1861491   1.6232478  )
         7           O2  tau(   7) = (   0.1616398   0.0923297   0.8116239  )
         8           O2  tau(   8) = (  -0.0603051  -0.1064377   1.2166242  )
         9           O2  tau(   9) = (   0.4447499  -0.0004966   1.2166242  )
        10           O2  tau(  10) = (  -0.2219449   0.3854130   1.2166242  )

   Crystallographic axes

     site n.     atom                  positions (cryst. coord.)
         1           Co1 tau(   1) = (  0.7504000  0.1891000  0.3100000  )
         2           Co1 tau(   2) = (  0.2504000  0.6891000  0.8100000  )
         3           La1 tau(   3) = (  0.0004000  0.4391000  0.5600000  )
         4           La1 tau(   4) = (  0.5004000  0.9391000  0.0600000  )
         5           O1  tau(   5) = (  0.0000000  0.0000000  0.0000000  )
         6           O2  tau(   6) = (  0.5613000  0.8791000  0.5596000  )
         7           O2  tau(   7) = (  0.4404000  0.4387000  0.1209000  )
         8           O2  tau(   8) = (  0.5008000  0.3782000  0.6200000  )
         9           O2  tau(   9) = (  0.9395000  0.4991000  0.0604000  )
        10           O2  tau(  10) = (  0.0604000  0.9395000  0.4991000  )

     number of k points=    36  gaussian smearing, width (Ry)=  0.0300
                       cart. coord. in units 2pi/alat
        k(    1) = (   0.0000000   0.0000000   0.0000000), wk =   0.0312500
        k(    2) = (  -0.2470771  -0.1426500   0.1026748), wk =   0.0625000
        k(    3) = (   0.4941541   0.2853000  -0.2053496), wk =   0.0312500
        k(    4) = (  -0.2470771   0.1426500   0.2053496), wk =   0.0625000
        k(    5) = (   0.4941541   0.5706001  -0.1026748), wk =   0.0625000
        k(    6) = (   0.2470771   0.4279500   0.0000000), wk =   0.0625000
        k(    7) = (   0.4941541  -0.2853000  -0.4106993), wk =   0.0312500
        k(    8) = (   0.0000000   0.0000000   0.3080244), wk =   0.0625000
        k(    9) = (   0.7412312   0.4279500   0.0000000), wk =   0.0625000
        k(   10) = (   0.4941541   0.2853000   0.1026748), wk =   0.0625000
        k(   11) = (   0.7412312  -0.4279500  -0.3080244), wk =   0.0625000
        k(   12) = (   0.4941541  -0.5706001  -0.2053496), wk =   0.0625000
        k(   13) = (   0.0000000   0.0000000  -0.6160489), wk =   0.0312500
        k(   14) = (  -0.2470771   0.1426500  -0.1026748), wk =   0.0625000
        k(   15) = (   0.0000000   0.2853000   0.1026748), wk =   0.0625000
        k(   16) = (   0.4941541  -0.2853000   0.2053496), wk =   0.0312500
        k(   17) = (   0.0000000  -0.5706001  -0.2053496), wk =   0.0312500
        k(   18) = (  -0.2470771  -0.1426500  -0.2053496), wk =   0.0625000
        k(   19) = (   0.0000000  -0.2853000   0.2053496), wk =   0.0625000
        k(   20) = (   0.4941541  -0.5706001   0.1026748), wk =   0.0625000
        k(   21) = (  -0.7412312   0.1426500  -0.1026748), wk =   0.0625000
        k(   22) = (   0.2470771  -0.7132501  -0.1026748), wk =   0.0625000
        k(   23) = (  -0.7412312  -0.1426500   0.1026748), wk =   0.0625000
        k(   24) = (   0.2470771   0.7132501   0.1026748), wk =   0.0625000
        k(   25) = (   0.2470771  -0.4279500   0.0000000), wk =   0.0625000
        k(   26) = (  -0.4941541   0.0000000   0.0000000), wk =   0.0625000
        k(   27) = (   0.4941541   0.2853000   0.4106993), wk =   0.0312500
        k(   28) = (   0.0000000   0.5706001  -0.4106993), wk =   0.0312500
        k(   29) = (   0.7412312  -0.4279500   0.0000000), wk =   0.0625000
        k(   30) = (   0.0000000  -0.8559001   0.0000000), wk =   0.0625000
        k(   31) = (   0.4941541  -0.2853000  -0.1026748), wk =   0.0625000
        k(   32) = (   0.0000000  -0.5706001   0.1026748), wk =   0.0625000
        k(   33) = (   0.7412312   0.4279500   0.3080244), wk =   0.0625000
        k(   34) = (   0.0000000   0.8559001  -0.3080244), wk =   0.0625000
        k(   35) = (   0.2470771   0.7132501  -0.2053496), wk =   0.0625000
        k(   36) = (  -0.7412312  -0.1426500  -0.2053496), wk =   0.0625000

                       cryst. coord.
        k(    1) = (   0.0000000   0.0000000   0.0000000), wk =   0.0312500
        k(    2) = (   0.0000000   0.0000000   0.2500000), wk =   0.0625000
        k(    3) = (   0.0000000   0.0000000  -0.5000000), wk =   0.0312500
        k(    4) = (   0.0000000   0.2500000   0.2500000), wk =   0.0625000
        k(    5) = (   0.0000000   0.2500000  -0.5000000), wk =   0.0625000
        k(    6) = (   0.0000000   0.2500000  -0.2500000), wk =   0.0625000
        k(    7) = (   0.0000000  -0.5000000  -0.5000000), wk =   0.0312500
        k(    8) = (   0.2500000   0.2500000   0.2500000), wk =   0.0625000
        k(    9) = (   0.2500000   0.2500000  -0.5000000), wk =   0.0625000
        k(   10) = (   0.2500000   0.2500000  -0.2500000), wk =   0.0625000
        k(   11) = (   0.2500000  -0.5000000  -0.5000000), wk =   0.0625000
        k(   12) = (   0.2500000  -0.5000000  -0.2500000), wk =   0.0625000
        k(   13) = (  -0.5000000  -0.5000000  -0.5000000), wk =   0.0312500
        k(   14) = (  -0.2500000   0.0000000   0.0000000), wk =   0.0625000
        k(   15) = (   0.0000000   0.2500000   0.0000000), wk =   0.0625000
        k(   16) = (   0.5000000   0.0000000   0.0000000), wk =   0.0312500
        k(   17) = (   0.0000000  -0.5000000   0.0000000), wk =   0.0312500
        k(   18) = (  -0.2500000  -0.2500000   0.0000000), wk =   0.0625000
        k(   19) = (   0.2500000   0.0000000   0.2500000), wk =   0.0625000
        k(   20) = (   0.5000000  -0.2500000   0.0000000), wk =   0.0625000
        k(   21) = (  -0.5000000   0.0000000   0.2500000), wk =   0.0625000
        k(   22) = (   0.2500000  -0.5000000   0.0000000), wk =   0.0625000
        k(   23) = (  -0.2500000   0.0000000   0.5000000), wk =   0.0625000
        k(   24) = (   0.0000000   0.5000000  -0.2500000), wk =   0.0625000
        k(   25) = (   0.2500000  -0.2500000   0.0000000), wk =   0.0625000
        k(   26) = (  -0.2500000   0.0000000   0.2500000), wk =   0.0625000
        k(   27) = (   0.5000000   0.5000000   0.0000000), wk =   0.0312500
        k(   28) = (  -0.5000000   0.0000000  -0.5000000), wk =   0.0312500
        k(   29) = (   0.5000000  -0.2500000  -0.2500000), wk =   0.0625000
        k(   30) = (   0.2500000  -0.5000000   0.2500000), wk =   0.0625000
        k(   31) = (   0.2500000  -0.2500000  -0.2500000), wk =   0.0625000
        k(   32) = (   0.2500000  -0.2500000   0.2500000), wk =   0.0625000
        k(   33) = (   0.5000000   0.5000000  -0.2500000), wk =   0.0625000
        k(   34) = (  -0.5000000   0.2500000  -0.5000000), wk =   0.0625000
        k(   35) = (  -0.2500000   0.2500000  -0.5000000), wk =   0.0625000
        k(   36) = (  -0.5000000  -0.2500000   0.2500000), wk =   0.0625000

     Dense  grid:    69617 G-vectors     FFT dimensions: (  60,  60,  60)

     Smooth grid:    17573 G-vectors     FFT dimensions: (  40,  40,  40)

     Largest allocated arrays     est. size (Mb)     dimensions
        Kohn-Sham Wavefunctions         0.79 Mb     (   1119,   46)
        Atomic wavefunctions            1.06 Mb     (   1119,   62)
        NL pseudopotentials             2.05 Mb     (   1119,  120)
        Each V/rho on FFT grid          1.65 Mb     ( 108000)
        Each G-vector array             0.27 Mb     (  34808)
        G-vector shells                 0.04 Mb     (   4682)
     Largest temporary arrays     est. size (Mb)     dimensions
        Auxiliary wavefunctions         3.14 Mb     (   1119,  184)
        Each subspace H/S matrix        0.52 Mb     ( 184, 184)
        Each <psi_i|beta_j> matrix      0.08 Mb     (    120,   46)
        Arrays for rho mixing          13.18 Mb     ( 108000,   8)

     Check: negative/imaginary core charge=   -0.000028    0.000000

     The initial density is read from file :
     /home/mcurnan/dft-course/Project1/example_LaCoO3/0/O/alpha/CoLaO_U0.save/charge-density.dat

 --- in v_hubbard ---
Hubbard energy    0.0599
 -------
     Number of +U iterations with fixed ns =  0
     Starting occupations:
 --- enter write_ns ---
 LDA+U parameters:
U( 1)     =  0.00000000
alpha( 1) =  0.00000000
U( 2)     =  0.00000000
alpha( 2) =  0.00000000
U( 3)     =  0.00000000
alpha( 3) =  0.15000000
U( 4)     =  0.00000000
alpha( 4) =  0.00000000
atom    1   Tr[ns(na)] =   8.02205
    eigenvalues: 
  0.596  0.596  0.938  0.941  0.941
    eigenvectors:
  0.000  0.000  1.000  0.000  0.000
  0.057  0.598  0.000  0.178  0.167
  0.598  0.057  0.000  0.167  0.178
  0.210  0.135  0.000  0.095  0.560
  0.135  0.210  0.000  0.560  0.095
    occupations:
  0.938  0.000  0.000  0.000  0.000
  0.000  0.715  0.000 -0.060  0.152
  0.000  0.000  0.715  0.152  0.060
  0.000 -0.060  0.152  0.822  0.000
  0.000  0.152  0.060  0.000  0.822
atom    2   Tr[ns(na)] =   8.02142
    eigenvalues: 
  0.595  0.595  0.938  0.941  0.941
    eigenvectors:
  0.000  0.000  1.000  0.000  0.000
  0.332  0.323  0.000  0.023  0.322
  0.323  0.332  0.000  0.322  0.023
  0.288  0.057  0.000  0.647  0.008
  0.057  0.288  0.000  0.008  0.647
    occupations:
  0.938  0.000  0.000  0.000  0.000
  0.000  0.715  0.000  0.060  0.153
  0.000  0.000  0.715  0.153 -0.060
  0.000  0.060  0.153  0.822  0.000
  0.000  0.153 -0.060  0.000  0.822
atom    3   Tr[ns(na)] =   3.80282
    eigenvalues: 
  0.355  0.355  0.384  0.403  0.403
    eigenvectors:
  0.000  0.000  1.000  0.000  0.000
  0.065  0.856  0.000  0.058  0.021
  0.856  0.065  0.000  0.021  0.058
  0.073  0.006  0.000  0.250  0.670
  0.006  0.073  0.000  0.670  0.250
    occupations:
  0.384  0.000  0.000  0.000  0.000
  0.000  0.359  0.000  0.000  0.013
  0.000  0.000  0.359  0.013  0.000
  0.000  0.000  0.013  0.399  0.000
  0.000  0.013  0.000  0.000  0.399
atom    4   Tr[ns(na)] =   3.80282
    eigenvalues: 
  0.355  0.355  0.384  0.403  0.403
    eigenvectors:
  0.000  0.000  1.000  0.000  0.000
  0.729  0.192  0.000  0.048  0.032
  0.192  0.729  0.000  0.032  0.048
  0.017  0.062  0.000  0.359  0.562
  0.062  0.017  0.000  0.562  0.359
    occupations:
  0.384  0.000  0.000  0.000  0.000
  0.000  0.359  0.000  0.000  0.013
  0.000  0.000  0.359  0.013  0.000
  0.000  0.000  0.013  0.399  0.000
  0.000  0.013  0.000  0.000  0.399
atom    5   Tr[ns(na)] =   5.43357
    eigenvalues: 
  0.846  0.929  0.941
    eigenvectors:
  0.340  0.000  0.660
  0.496  0.250  0.255
  0.164  0.750  0.086
    occupations:
  0.909 -0.039  0.022
 -0.039  0.891  0.022
  0.022  0.022  0.917
atom    6   Tr[ns(na)] =   5.43358
    eigenvalues: 
  0.846  0.929  0.941
    eigenvectors:
  0.340  0.000  0.660
  0.494  0.250  0.256
  0.166  0.750  0.085
    occupations:
  0.909  0.039  0.022
  0.039  0.891 -0.022
  0.022 -0.022  0.917
atom    7   Tr[ns(na)] =   5.43358
    eigenvalues: 
  0.846  0.929  0.941
    eigenvectors:
  0.340  0.000  0.660
  0.000  1.000  0.000
  0.660  0.000  0.340
    occupations:
  0.909  0.000 -0.045
  0.000  0.929  0.000
 -0.045  0.000  0.879
atom    8   Tr[ns(na)] =   5.43357
    eigenvalues: 
  0.846  0.929  0.941
    eigenvectors:
  0.340  0.000  0.660
  0.496  0.250  0.255
  0.164  0.750  0.086
    occupations:
  0.909 -0.039  0.022
 -0.039  0.891  0.022
  0.022  0.022  0.917
atom    9   Tr[ns(na)] =   5.43358
    eigenvalues: 
  0.846  0.929  0.941
    eigenvectors:
  0.340  0.000  0.660
  0.494  0.250  0.256
  0.166  0.750  0.085
    occupations:
  0.909  0.039  0.022
  0.039  0.891 -0.022
  0.022 -0.022  0.917
atom   10   Tr[ns(na)] =   5.43358
    eigenvalues: 
  0.846  0.929  0.941
    eigenvectors:
  0.340  0.000  0.660
  0.000  1.000  0.000
  0.660  0.000  0.340
    occupations:
  0.909  0.000 -0.045
  0.000  0.929  0.000
 -0.045  0.000  0.879
N of occupied +U levels =  56.2505796
 --- exit write_ns ---
 LDA+U Projector read from file 
     Starting wfc from file

     total cpu time spent up to now is        7.3 secs

     per-process dynamical memory:    62.8 Mb

     Self-consistent Calculation

     iteration #  1     ecut=    30.00 Ry     beta=0.20
     Davidson diagonalization with overlap
     c_bands:  1 eigenvalues not converged
     c_bands:  1 eigenvalues not converged
     c_bands:  1 eigenvalues not converged
     c_bands:  1 eigenvalues not converged
     c_bands:  1 eigenvalues not converged
     c_bands:  1 eigenvalues not converged
     c_bands:  1 eigenvalues not converged
     c_bands:  1 eigenvalues not converged
     c_bands:  1 eigenvalues not converged
     c_bands:  1 eigenvalues not converged
     c_bands:  1 eigenvalues not converged
     c_bands:  1 eigenvalues not converged
     c_bands:  1 eigenvalues not converged
     c_bands:  1 eigenvalues not converged
     c_bands:  1 eigenvalues not converged
     c_bands:  1 eigenvalues not converged
     c_bands:  1 eigenvalues not converged
     c_bands:  1 eigenvalues not converged
     c_bands:  1 eigenvalues not converged
     c_bands:  1 eigenvalues not converged
     ethr =  1.00E-10,  avg # of iterations = 17.5
 --- enter write_ns ---
 LDA+U parameters:
U( 1)     =  0.00000000
alpha( 1) =  0.00000000
U( 2)     =  0.00000000
alpha( 2) =  0.00000000
U( 3)     =  0.00000000
alpha( 3) =  0.15000000
U( 4)     =  0.00000000
alpha( 4) =  0.00000000
atom    1   Tr[ns(na)] =   8.02931
    eigenvalues: 
  0.597  0.598  0.938  0.941  0.941
    eigenvectors:
  0.000  0.000  0.933  0.003  0.064
  0.101  0.554  0.019  0.114  0.213
  0.554  0.101  0.004  0.231  0.110
  0.174  0.170  0.022  0.198  0.435
  0.171  0.175  0.021  0.455  0.178
    occupations:
  0.938 -0.001  0.000  0.001  0.000
 -0.001  0.717  0.000 -0.060  0.152
  0.000  0.000  0.715  0.152  0.060
  0.001 -0.060  0.152  0.823  0.000
  0.000  0.152  0.060  0.000  0.822
atom    2   Tr[ns(na)] =   8.02910
    eigenvalues: 
  0.596  0.597  0.938  0.941  0.942
    eigenvectors:
  0.000  0.000  0.942  0.002  0.055
  0.236  0.420  0.013  0.059  0.272
  0.419  0.235  0.007  0.286  0.054
  0.321  0.025  0.002  0.651  0.001
  0.024  0.320  0.036  0.002  0.618
    occupations:
  0.938  0.000  0.000  0.000 -0.001
  0.000  0.716 -0.001  0.060  0.152
  0.000 -0.001  0.716  0.153 -0.060
  0.000  0.060  0.153  0.822  0.000
 -0.001  0.152 -0.060  0.000  0.823
atom    3   Tr[ns(na)] =   3.80652
    eigenvalues: 
  0.356  0.356  0.384  0.403  0.404
    eigenvectors:
  0.000  0.000  1.000  0.000  0.000
  0.693  0.231  0.000  0.019  0.058
  0.231  0.692  0.000  0.059  0.018
  0.020  0.058  0.000  0.695  0.228
  0.057  0.020  0.000  0.227  0.696
    occupations:
  0.384  0.000  0.000  0.000  0.000
  0.000  0.359  0.000  0.000  0.013
  0.000  0.000  0.360  0.013  0.000
  0.000  0.000  0.013  0.400  0.000
  0.000  0.013  0.000  0.000  0.400
atom    4   Tr[ns(na)] =   3.80625
    eigenvalues: 
  0.356  0.356  0.384  0.403  0.404
    eigenvectors:
  0.000  0.000  1.000  0.000  0.000
  0.233  0.684  0.000  0.019  0.063
  0.688  0.232  0.000  0.059  0.021
  0.058  0.022  0.000  0.687  0.233
  0.020  0.062  0.000  0.234  0.683
    occupations:
  0.384  0.000  0.000  0.000  0.000
  0.000  0.360  0.000  0.000  0.013
  0.000  0.000  0.360  0.013  0.000
  0.000  0.000  0.013  0.400  0.000
  0.000  0.013  0.000  0.000  0.400
atom    5   Tr[ns(na)] =   5.40974
    eigenvalues: 
  0.841  0.926  0.938
    eigenvectors:
  0.341  0.000  0.659
  0.495  0.250  0.256
  0.164  0.750  0.086
    occupations:
  0.905 -0.040  0.023
 -0.040  0.887  0.022
  0.023  0.022  0.913
atom    6   Tr[ns(na)] =   5.43460
    eigenvalues: 
  0.846  0.930  0.941
    eigenvectors:
  0.340  0.000  0.660
  0.494  0.252  0.254
  0.166  0.748  0.086
    occupations:
  0.909  0.039  0.023
  0.039  0.891 -0.022
  0.023 -0.022  0.917
atom    7   Tr[ns(na)] =   5.43460
    eigenvalues: 
  0.846  0.930  0.941
    eigenvectors:
  0.340  0.000  0.660
  0.000  1.000  0.000
  0.660  0.000  0.340
    occupations:
  0.909  0.000 -0.045
  0.000  0.930  0.000
 -0.045  0.000  0.879
atom    8   Tr[ns(na)] =   5.43462
    eigenvalues: 
  0.847  0.930  0.941
    eigenvectors:
  0.340  0.000  0.660
  0.496  0.250  0.255
  0.164  0.750  0.086
    occupations:
  0.909 -0.039  0.022
 -0.039  0.891  0.022
  0.022  0.022  0.917
atom    9   Tr[ns(na)] =   5.43457
    eigenvalues: 
  0.846  0.930  0.941
    eigenvectors:
  0.340  0.000  0.660
  0.494  0.252  0.254
  0.166  0.748  0.086
    occupations:
  0.909  0.039  0.023
  0.039  0.891 -0.022
  0.023 -0.022  0.917
atom   10   Tr[ns(na)] =   5.43457
    eigenvalues: 
  0.846  0.930  0.941
    eigenvectors:
  0.340  0.000  0.660
  0.000  1.000  0.000
  0.660  0.000  0.340
    occupations:
  0.909  0.000 -0.045
  0.000  0.930  0.000
 -0.045  0.000  0.879
N of occupied +U levels =  56.2538658
 --- exit write_ns ---
 --- in v_hubbard ---
Hubbard energy    0.0599
 -------

     total cpu time spent up to now is       97.0 secs

     total energy              =    -538.27312896 Ry
     Harris-Foulkes estimate   =    -538.27328589 Ry
     estimated scf accuracy    <       0.00047590 Ry

     iteration #  2     ecut=    30.00 Ry     beta=0.20
     Davidson diagonalization with overlap
     ethr =  6.26E-07,  avg # of iterations =  2.0
 --- enter write_ns ---
 LDA+U parameters:
U( 1)     =  0.00000000
alpha( 1) =  0.00000000
U( 2)     =  0.00000000
alpha( 2) =  0.00000000
U( 3)     =  0.00000000
alpha( 3) =  0.15000000
U( 4)     =  0.00000000
alpha( 4) =  0.00000000
atom    1   Tr[ns(na)] =   8.02248
    eigenvalues: 
  0.595  0.596  0.938  0.941  0.941
    eigenvectors:
  0.000  0.000  0.995  0.001  0.004
  0.101  0.554  0.001  0.207  0.137
  0.554  0.101  0.000  0.138  0.207
  0.174  0.171  0.002  0.060  0.593
  0.171  0.174  0.001  0.595  0.059
    occupations:
  0.938  0.000  0.000  0.000  0.000
  0.000  0.715  0.000 -0.060  0.152
  0.000  0.000  0.715  0.153  0.061
  0.000 -0.060  0.153  0.822  0.000
  0.000  0.152  0.061  0.000  0.822
atom    2   Tr[ns(na)] =   8.01953
    eigenvalues: 
  0.594  0.595  0.938  0.941  0.941
    eigenvectors:
  0.000  0.000  0.996  0.000  0.003
  0.235  0.420  0.001  0.007  0.337
  0.420  0.235  0.000  0.338  0.007
  0.321  0.024  0.000  0.620  0.034
  0.024  0.321  0.002  0.034  0.618
    occupations:
  0.938  0.000  0.000  0.000  0.000
  0.000  0.714  0.000  0.060  0.153
  0.000  0.000  0.714  0.153 -0.060
  0.000  0.060  0.153  0.821  0.000
  0.000  0.153 -0.060  0.000  0.822
atom    3   Tr[ns(na)] =   3.80498
    eigenvalues: 
  0.356  0.356  0.384  0.403  0.403
    eigenvectors:
  0.000  0.000  1.000  0.000  0.000
  0.693  0.229  0.000  0.016  0.063
  0.229  0.693  0.000  0.063  0.016
  0.020  0.058  0.000  0.728  0.194
  0.059  0.020  0.000  0.194  0.728
    occupations:
  0.384  0.000  0.000  0.000  0.000
  0.000  0.359  0.000  0.000  0.013
  0.000  0.000  0.359  0.013  0.000
  0.000  0.000  0.013  0.400  0.000
  0.000  0.013  0.000  0.000  0.400
atom    4   Tr[ns(na)] =   3.80494
    eigenvalues: 
  0.356  0.356  0.384  0.403  0.403
    eigenvectors:
  0.000  0.000  1.000  0.000  0.000
  0.716  0.204  0.000  0.019  0.060
  0.204  0.717  0.000  0.060  0.020
  0.018  0.061  0.000  0.689  0.231
  0.062  0.018  0.000  0.232  0.689
    occupations:
  0.384  0.000  0.000  0.000  0.000
  0.000  0.359  0.000  0.000  0.013
  0.000  0.000  0.359  0.013  0.000
  0.000  0.000  0.013  0.400  0.000
  0.000  0.013  0.000  0.000  0.400
atom    5   Tr[ns(na)] =   5.42560
    eigenvalues: 
  0.844  0.928  0.940
    eigenvectors:
  0.340  0.000  0.660
  0.495  0.250  0.255
  0.164  0.750  0.086
    occupations:
  0.908 -0.039  0.023
 -0.039  0.890  0.022
  0.023  0.022  0.916
atom    6   Tr[ns(na)] =   5.43492
    eigenvalues: 
  0.847  0.930  0.941
    eigenvectors:
  0.340  0.000  0.660
  0.494  0.251  0.255
  0.166  0.749  0.085
    occupations:
  0.909  0.039  0.022
  0.039  0.892 -0.022
  0.022 -0.022  0.917
atom    7   Tr[ns(na)] =   5.43492
    eigenvalues: 
  0.847  0.930  0.941
    eigenvectors:
  0.340  0.000  0.660
  0.000  1.000  0.000
  0.660  0.000  0.340
    occupations:
  0.909  0.000 -0.045
  0.000  0.930  0.000
 -0.045  0.000  0.879
atom    8   Tr[ns(na)] =   5.43412
    eigenvalues: 
  0.847  0.929  0.941
    eigenvectors:
  0.340  0.000  0.660
  0.496  0.250  0.255
  0.164  0.750  0.085
    occupations:
  0.909 -0.039  0.022
 -0.039  0.891  0.022
  0.022  0.022  0.917
atom    9   Tr[ns(na)] =   5.43511
    eigenvalues: 
  0.847  0.930  0.941
    eigenvectors:
  0.340  0.000  0.660
  0.495  0.250  0.255
  0.165  0.750  0.085
    occupations:
  0.909  0.039  0.022
  0.039  0.892 -0.022
  0.022 -0.022  0.917
atom   10   Tr[ns(na)] =   5.43511
    eigenvalues: 
  0.847  0.930  0.941
    eigenvectors:
  0.340  0.000  0.660
  0.000  1.000  0.000
  0.660  0.000  0.340
    occupations:
  0.909  0.000 -0.045
  0.000  0.930  0.000
 -0.045  0.000  0.879
N of occupied +U levels =  56.2517344
 --- exit write_ns ---
 --- in v_hubbard ---
Hubbard energy    0.0598
 -------

     total cpu time spent up to now is      122.8 secs

     total energy              =    -538.27320017 Ry
     Harris-Foulkes estimate   =    -538.27320657 Ry
     estimated scf accuracy    <       0.00002230 Ry

     iteration #  3     ecut=    30.00 Ry     beta=0.20
     Davidson diagonalization with overlap
     ethr =  2.93E-08,  avg # of iterations =  2.0
 --- enter write_ns ---
 LDA+U parameters:
U( 1)     =  0.00000000
alpha( 1) =  0.00000000
U( 2)     =  0.00000000
alpha( 2) =  0.00000000
U( 3)     =  0.00000000
alpha( 3) =  0.15000000
U( 4)     =  0.00000000
alpha( 4) =  0.00000000
atom    1   Tr[ns(na)] =   8.01896
    eigenvalues: 
  0.595  0.596  0.937  0.940  0.940
    eigenvectors:
  0.000  0.000  0.994  0.001  0.006
  0.101  0.553  0.002  0.182  0.162
  0.553  0.102  0.001  0.163  0.181
  0.174  0.171  0.002  0.091  0.562
  0.171  0.174  0.002  0.563  0.090
    occupations:
  0.937  0.000  0.000  0.000  0.000
  0.000  0.715  0.000 -0.060  0.152
  0.000  0.000  0.714  0.152  0.060
  0.000 -0.060  0.152  0.821  0.000
  0.000  0.152  0.060  0.000  0.821
atom    2   Tr[ns(na)] =   8.02947
    eigenvalues: 
  0.596  0.597  0.939  0.942  0.942
    eigenvectors:
  0.000  0.000  0.995  0.000  0.005
  0.235  0.420  0.001  0.017  0.327
  0.420  0.235  0.000  0.328  0.017
  0.321  0.024  0.000  0.640  0.015
  0.024  0.321  0.003  0.015  0.637
    occupations:
  0.939  0.000  0.000  0.000  0.000
  0.000  0.715  0.000  0.060  0.153
  0.000  0.000  0.715  0.153 -0.060
  0.000  0.060  0.153  0.822  0.000
  0.000  0.153 -0.060  0.000  0.823
atom    3   Tr[ns(na)] =   3.80492
    eigenvalues: 
  0.356  0.356  0.384  0.403  0.403
    eigenvectors:
  0.000  0.000  1.000  0.000  0.000
  0.692  0.230  0.000  0.016  0.062
  0.230  0.692  0.000  0.062  0.016
  0.020  0.058  0.000  0.723  0.198
  0.058  0.020  0.000  0.198  0.723
    occupations:
  0.384  0.000  0.000  0.000  0.000
  0.000  0.359  0.000  0.000  0.013
  0.000  0.000  0.359  0.013  0.000
  0.000  0.000  0.013  0.400  0.000
  0.000  0.013  0.000  0.000  0.400
atom    4   Tr[ns(na)] =   3.80489
    eigenvalues: 
  0.356  0.356  0.384  0.403  0.403
    eigenvectors:
  0.000  0.000  1.000  0.000  0.000
  0.739  0.181  0.000  0.019  0.060
  0.181  0.740  0.000  0.059  0.020
  0.016  0.063  0.000  0.688  0.233
  0.064  0.016  0.000  0.233  0.687
    occupations:
  0.384  0.000  0.000  0.000  0.000
  0.000  0.359  0.000  0.000  0.013
  0.000  0.000  0.359  0.013  0.000
  0.000  0.000  0.013  0.400  0.000
  0.000  0.013  0.000  0.000  0.400
atom    5   Tr[ns(na)] =   5.42448
    eigenvalues: 
  0.844  0.928  0.940
    eigenvectors:
  0.341  0.000  0.659
  0.495  0.250  0.255
  0.164  0.750  0.086
    occupations:
  0.907 -0.039  0.023
 -0.039  0.890  0.022
  0.023  0.022  0.915
atom    6   Tr[ns(na)] =   5.43397
    eigenvalues: 
  0.846  0.929  0.941
    eigenvectors:
  0.340  0.000  0.660
  0.494  0.251  0.255
  0.166  0.749  0.085
    occupations:
  0.909  0.039  0.022
  0.039  0.891 -0.022
  0.022 -0.022  0.917
atom    7   Tr[ns(na)] =   5.43397
    eigenvalues: 
  0.846  0.929  0.941
    eigenvectors:
  0.340  0.000  0.660
  0.000  1.000  0.000
  0.660  0.000  0.340
    occupations:
  0.909  0.000 -0.045
  0.000  0.929  0.000
 -0.045  0.000  0.879
atom    8   Tr[ns(na)] =   5.43344
    eigenvalues: 
  0.846  0.929  0.941
    eigenvectors:
  0.340  0.000  0.660
  0.495  0.250  0.255
  0.164  0.750  0.086
    occupations:
  0.909 -0.039  0.022
 -0.039  0.891  0.022
  0.022  0.022  0.917
atom    9   Tr[ns(na)] =   5.43406
    eigenvalues: 
  0.847  0.929  0.941
    eigenvectors:
  0.340  0.000  0.660
  0.495  0.250  0.255
  0.165  0.750  0.085
    occupations:
  0.909  0.039  0.022
  0.039  0.891 -0.022
  0.022 -0.022  0.917
atom   10   Tr[ns(na)] =   5.43406
    eigenvalues: 
  0.847  0.929  0.941
    eigenvectors:
  0.340  0.000  0.660
  0.000  1.000  0.000
  0.660  0.000  0.340
    occupations:
  0.909  0.000 -0.045
  0.000  0.929  0.000
 -0.045  0.000  0.879
N of occupied +U levels =  56.2522255
 --- exit write_ns ---
 --- in v_hubbard ---
Hubbard energy    0.0598
 -------

     total cpu time spent up to now is      149.9 secs

     total energy              =    -538.27320002 Ry
     Harris-Foulkes estimate   =    -538.27320636 Ry
     estimated scf accuracy    <       0.00006606 Ry

     iteration #  4     ecut=    30.00 Ry     beta=0.20
     Davidson diagonalization with overlap
     ethr =  2.93E-08,  avg # of iterations =  1.0
 --- enter write_ns ---
 LDA+U parameters:
U( 1)     =  0.00000000
alpha( 1) =  0.00000000
U( 2)     =  0.00000000
alpha( 2) =  0.00000000
U( 3)     =  0.00000000
alpha( 3) =  0.15000000
U( 4)     =  0.00000000
alpha( 4) =  0.00000000
atom    1   Tr[ns(na)] =   8.02814
    eigenvalues: 
  0.596  0.597  0.938  0.941  0.941
    eigenvectors:
  0.000  0.000  0.993  0.001  0.006
  0.101  0.553  0.002  0.177  0.166
  0.554  0.101  0.001  0.168  0.177
  0.174  0.171  0.003  0.097  0.556
  0.171  0.174  0.002  0.558  0.095
    occupations:
  0.938  0.000  0.000  0.000  0.000
  0.000  0.716  0.000 -0.060  0.152
  0.000  0.000  0.715  0.152  0.061
  0.000 -0.060  0.152  0.822  0.000
  0.000  0.152  0.061  0.000  0.822
atom    2   Tr[ns(na)] =   8.01990
    eigenvalues: 
  0.595  0.596  0.938  0.941  0.941
    eigenvectors:
  0.000  0.000  0.995  0.000  0.005
  0.235  0.420  0.001  0.019  0.325
  0.420  0.234  0.000  0.326  0.019
  0.321  0.024  0.000  0.642  0.012
  0.024  0.321  0.003  0.012  0.639
    occupations:
  0.938  0.000  0.000  0.000  0.000
  0.000  0.715  0.000  0.060  0.153
  0.000  0.000  0.715  0.153 -0.060
  0.000  0.060  0.153  0.821  0.000
  0.000  0.153 -0.060  0.000  0.822
atom    3   Tr[ns(na)] =   3.80490
    eigenvalues: 
  0.356  0.356  0.384  0.403  0.403
    eigenvectors:
  0.000  0.000  1.000  0.000  0.000
  0.692  0.230  0.000  0.011  0.068
  0.230  0.692  0.000  0.067  0.011
  0.020  0.058  0.000  0.784  0.137
  0.058  0.020  0.000  0.137  0.784
    occupations:
  0.384  0.000  0.000  0.000  0.000
  0.000  0.359  0.000  0.000  0.013
  0.000  0.000  0.359  0.013  0.000
  0.000  0.000  0.013  0.400  0.000
  0.000  0.013  0.000  0.000  0.400
atom    4   Tr[ns(na)] =   3.80488
    eigenvalues: 
  0.356  0.356  0.384  0.403  0.403
    eigenvectors:
  0.000  0.000  1.000  0.000  0.000
  0.729  0.192  0.000  0.019  0.060
  0.191  0.730  0.000  0.059  0.020
  0.017  0.062  0.000  0.688  0.233
  0.063  0.017  0.000  0.234  0.686
    occupations:
  0.384  0.000  0.000  0.000  0.000
  0.000  0.359  0.000  0.000  0.013
  0.000  0.000  0.359  0.013  0.000
  0.000  0.000  0.013  0.400  0.000
  0.000  0.013  0.000  0.000  0.400
atom    5   Tr[ns(na)] =   5.42455
    eigenvalues: 
  0.844  0.928  0.940
    eigenvectors:
  0.341  0.000  0.659
  0.495  0.250  0.255
  0.164  0.750  0.086
    occupations:
  0.907 -0.039  0.023
 -0.039  0.890  0.022
  0.023  0.022  0.915
atom    6   Tr[ns(na)] =   5.43402
    eigenvalues: 
  0.846  0.929  0.941
    eigenvectors:
  0.340  0.000  0.660
  0.493  0.251  0.255
  0.166  0.749  0.085
    occupations:
  0.909  0.039  0.022
  0.039  0.891 -0.022
  0.022 -0.022  0.917
atom    7   Tr[ns(na)] =   5.43402
    eigenvalues: 
  0.846  0.929  0.941
    eigenvectors:
  0.340  0.000  0.660
  0.000  1.000  0.000
  0.660  0.000  0.340
    occupations:
  0.909  0.000 -0.045
  0.000  0.929  0.000
 -0.045  0.000  0.879
atom    8   Tr[ns(na)] =   5.43352
    eigenvalues: 
  0.846  0.929  0.941
    eigenvectors:
  0.340  0.000  0.660
  0.496  0.249  0.255
  0.164  0.751  0.085
    occupations:
  0.909 -0.039  0.022
 -0.039  0.891  0.022
  0.022  0.022  0.917
atom    9   Tr[ns(na)] =   5.43411
    eigenvalues: 
  0.847  0.929  0.941
    eigenvectors:
  0.340  0.000  0.660
  0.494  0.251  0.255
  0.166  0.749  0.085
    occupations:
  0.909  0.039  0.022
  0.039  0.891 -0.022
  0.022 -0.022  0.917
atom   10   Tr[ns(na)] =   5.43410
    eigenvalues: 
  0.847  0.929  0.941
    eigenvectors:
  0.340  0.000  0.660
  0.000  1.000  0.000
  0.660  0.000  0.340
    occupations:
  0.909  0.000 -0.045
  0.000  0.929  0.000
 -0.045  0.000  0.879
N of occupied +U levels =  56.2521374
 --- exit write_ns ---
 --- in v_hubbard ---
Hubbard energy    0.0598
 -------

     total cpu time spent up to now is      175.7 secs

     total energy              =    -538.27320316 Ry
     Harris-Foulkes estimate   =    -538.27320522 Ry
     estimated scf accuracy    <       0.00003099 Ry

     iteration #  5     ecut=    30.00 Ry     beta=0.20
     Davidson diagonalization with overlap
     ethr =  2.93E-08,  avg # of iterations =  1.0
 --- enter write_ns ---
 LDA+U parameters:
U( 1)     =  0.00000000
alpha( 1) =  0.00000000
U( 2)     =  0.00000000
alpha( 2) =  0.00000000
U( 3)     =  0.00000000
alpha( 3) =  0.15000000
U( 4)     =  0.00000000
alpha( 4) =  0.00000000
atom    1   Tr[ns(na)] =   8.02386
    eigenvalues: 
  0.596  0.597  0.938  0.941  0.941
    eigenvectors:
  0.000  0.000  0.993  0.001  0.007
  0.101  0.553  0.002  0.167  0.176
  0.553  0.102  0.001  0.178  0.166
  0.174  0.171  0.003  0.111  0.541
  0.171  0.174  0.002  0.544  0.109
    occupations:
  0.938  0.000  0.000  0.000  0.000
  0.000  0.715  0.000 -0.060  0.152
  0.000  0.000  0.715  0.152  0.061
  0.000 -0.060  0.152  0.822  0.000
  0.000  0.152  0.061  0.000  0.822
atom    2   Tr[ns(na)] =   8.02329
    eigenvalues: 
  0.595  0.596  0.938  0.941  0.941
    eigenvectors:
  0.000  0.000  0.994  0.000  0.006
  0.235  0.421  0.002  0.024  0.319
  0.420  0.234  0.001  0.321  0.024
  0.321  0.024  0.000  0.647  0.007
  0.024  0.321  0.004  0.007  0.644
    occupations:
  0.938  0.000  0.000  0.000  0.000
  0.000  0.715  0.000  0.060  0.153
  0.000  0.000  0.715  0.153 -0.060
  0.000  0.060  0.153  0.822  0.000
  0.000  0.153 -0.060  0.000  0.822
atom    3   Tr[ns(na)] =   3.80479
    eigenvalues: 
  0.356  0.356  0.384  0.403  0.403
    eigenvectors:
  0.000  0.000  1.000  0.000  0.000
  0.691  0.230  0.000  0.014  0.064
  0.230  0.691  0.000  0.064  0.014
  0.020  0.058  0.000  0.748  0.174
  0.058  0.020  0.000  0.174  0.748
    occupations:
  0.384  0.000  0.000  0.000  0.000
  0.000  0.359  0.000  0.000  0.013
  0.000  0.000  0.359  0.013  0.000
  0.000  0.000  0.013  0.400  0.000
  0.000  0.013  0.000  0.000  0.400
atom    4   Tr[ns(na)] =   3.80477
    eigenvalues: 
  0.356  0.356  0.384  0.403  0.403
    eigenvectors:
  0.000  0.000  1.000  0.000  0.000
  0.725  0.195  0.000  0.019  0.060
  0.195  0.726  0.000  0.059  0.020
  0.018  0.062  0.000  0.686  0.235
  0.063  0.017  0.000  0.235  0.685
    occupations:
  0.384  0.000  0.000  0.000  0.000
  0.000  0.359  0.000  0.000  0.013
  0.000  0.000  0.359  0.013  0.000
  0.000  0.000  0.013  0.400  0.000
  0.000  0.013  0.000  0.000  0.400
atom    5   Tr[ns(na)] =   5.42471
    eigenvalues: 
  0.844  0.928  0.940
    eigenvectors:
  0.341  0.000  0.659
  0.495  0.250  0.255
  0.164  0.750  0.086
    occupations:
  0.907 -0.039  0.023
 -0.039  0.890  0.022
  0.023  0.022  0.915
atom    6   Tr[ns(na)] =   5.43417
    eigenvalues: 
  0.847  0.929  0.941
    eigenvectors:
  0.340  0.000  0.660
  0.494  0.251  0.255
  0.166  0.749  0.085
    occupations:
  0.909  0.039  0.022
  0.039  0.891 -0.022
  0.022 -0.022  0.917
atom    7   Tr[ns(na)] =   5.43417
    eigenvalues: 
  0.847  0.929  0.941
    eigenvectors:
  0.340  0.000  0.660
  0.000  1.000  0.000
  0.660  0.000  0.340
    occupations:
  0.909  0.000 -0.045
  0.000  0.929  0.000
 -0.045  0.000  0.879
atom    8   Tr[ns(na)] =   5.43373
    eigenvalues: 
  0.846  0.929  0.941
    eigenvectors:
  0.340  0.000  0.660
  0.496  0.250  0.255
  0.164  0.750  0.085
    occupations:
  0.909 -0.039  0.022
 -0.039  0.891  0.022
  0.022  0.022  0.917
atom    9   Tr[ns(na)] =   5.43425
    eigenvalues: 
  0.847  0.929  0.941
    eigenvectors:
  0.340  0.000  0.660
  0.495  0.250  0.255
  0.165  0.750  0.085
    occupations:
  0.909  0.039  0.022
  0.039  0.891 -0.022
  0.022 -0.022  0.917
atom   10   Tr[ns(na)] =   5.43424
    eigenvalues: 
  0.847  0.929  0.941
    eigenvectors:
  0.340  0.000  0.660
  0.000  1.000  0.000
  0.660  0.000  0.340
    occupations:
  0.909  0.000 -0.045
  0.000  0.929  0.000
 -0.045  0.000  0.879
N of occupied +U levels =  56.2519892
 --- exit write_ns ---
 --- in v_hubbard ---
Hubbard energy    0.0598
 -------

     total cpu time spent up to now is      200.2 secs

     total energy              =    -538.27320374 Ry
     Harris-Foulkes estimate   =    -538.27320411 Ry
     estimated scf accuracy    <       0.00000108 Ry

     iteration #  6     ecut=    30.00 Ry     beta=0.20
     Davidson diagonalization with overlap
     ethr =  1.42E-09,  avg # of iterations =  2.0
 --- enter write_ns ---
 LDA+U parameters:
U( 1)     =  0.00000000
alpha( 1) =  0.00000000
U( 2)     =  0.00000000
alpha( 2) =  0.00000000
U( 3)     =  0.00000000
alpha( 3) =  0.15000000
U( 4)     =  0.00000000
alpha( 4) =  0.00000000
atom    1   Tr[ns(na)] =   8.02387
    eigenvalues: 
  0.596  0.597  0.938  0.941  0.941
    eigenvectors:
  0.000  0.000  0.990  0.000  0.009
  0.102  0.553  0.003  0.146  0.197
  0.553  0.102  0.001  0.199  0.145
  0.173  0.172  0.004  0.143  0.509
  0.172  0.174  0.003  0.512  0.140
    occupations:
  0.938  0.000  0.000  0.000  0.000
  0.000  0.715  0.000 -0.060  0.152
  0.000  0.000  0.715  0.152  0.060
  0.000 -0.060  0.152  0.822  0.000
  0.000  0.152  0.060  0.000  0.822
atom    2   Tr[ns(na)] =   8.02331
    eigenvalues: 
  0.595  0.596  0.938  0.941  0.941
    eigenvectors:
  0.000  0.000  0.992  0.000  0.008
  0.234  0.421  0.002  0.037  0.306
  0.421  0.234  0.001  0.308  0.036
  0.321  0.024  0.000  0.653  0.001
  0.024  0.321  0.005  0.001  0.649
    occupations:
  0.938  0.000  0.000  0.000  0.000
  0.000  0.715  0.000  0.060  0.153
  0.000  0.000  0.715  0.153 -0.060
  0.000  0.060  0.153  0.822  0.000
  0.000  0.153 -0.060  0.000  0.822
atom    3   Tr[ns(na)] =   3.80449
    eigenvalues: 
  0.356  0.356  0.384  0.403  0.403
    eigenvectors:
  0.000  0.000  1.000  0.000  0.000
  0.691  0.230  0.000  0.014  0.064
  0.230  0.691  0.000  0.064  0.014
  0.020  0.058  0.000  0.746  0.176
  0.058  0.020  0.000  0.176  0.746
    occupations:
  0.384  0.000  0.000  0.000  0.000
  0.000  0.359  0.000  0.000  0.013
  0.000  0.000  0.359  0.013  0.000
  0.000  0.000  0.013  0.400  0.000
  0.000  0.013  0.000  0.000  0.400
atom    4   Tr[ns(na)] =   3.80445
    eigenvalues: 
  0.356  0.356  0.384  0.403  0.403
    eigenvectors:
  0.000  0.000  1.000  0.000  0.000
  0.724  0.196  0.000  0.019  0.061
  0.196  0.725  0.000  0.059  0.020
  0.018  0.061  0.000  0.687  0.234
  0.063  0.017  0.000  0.234  0.686
    occupations:
  0.384  0.000  0.000  0.000  0.000
  0.000  0.359  0.000  0.000  0.013
  0.000  0.000  0.359  0.013  0.000
  0.000  0.000  0.013  0.400  0.000
  0.000  0.013  0.000  0.000  0.400
atom    5   Tr[ns(na)] =   5.42476
    eigenvalues: 
  0.844  0.928  0.940
    eigenvectors:
  0.341  0.000  0.659
  0.495  0.250  0.255
  0.164  0.750  0.086
    occupations:
  0.907 -0.039  0.023
 -0.039  0.890  0.022
  0.023  0.022  0.915
atom    6   Tr[ns(na)] =   5.43423
    eigenvalues: 
  0.847  0.929  0.941
    eigenvectors:
  0.340  0.000  0.660
  0.494  0.251  0.255
  0.166  0.749  0.086
    occupations:
  0.909  0.039  0.022
  0.039  0.891 -0.022
  0.022 -0.022  0.917
atom    7   Tr[ns(na)] =   5.43423
    eigenvalues: 
  0.847  0.929  0.941
    eigenvectors:
  0.340  0.000  0.660
  0.000  1.000  0.000
  0.660  0.000  0.340
    occupations:
  0.909  0.000 -0.045
  0.000  0.929  0.000
 -0.045  0.000  0.879
atom    8   Tr[ns(na)] =   5.43383
    eigenvalues: 
  0.847  0.929  0.941
    eigenvectors:
  0.340  0.000  0.660
  0.496  0.250  0.255
  0.164  0.750  0.085
    occupations:
  0.909 -0.039  0.022
 -0.039  0.891  0.022
  0.022  0.022  0.917
atom    9   Tr[ns(na)] =   5.43430
    eigenvalues: 
  0.847  0.929  0.941
    eigenvectors:
  0.340  0.000  0.660
  0.495  0.251  0.255
  0.165  0.749  0.085
    occupations:
  0.909  0.039  0.022
  0.039  0.891 -0.022
  0.022 -0.022  0.917
atom   10   Tr[ns(na)] =   5.43430
    eigenvalues: 
  0.847  0.929  0.941
    eigenvectors:
  0.340  0.000  0.660
  0.000  1.000  0.000
  0.660  0.000  0.340
    occupations:
  0.909  0.000 -0.045
  0.000  0.929  0.000
 -0.045  0.000  0.879
N of occupied +U levels =  56.2517929
 --- exit write_ns ---
 --- in v_hubbard ---
Hubbard energy    0.0598
 -------

     total cpu time spent up to now is      228.4 secs

     total energy              =    -538.27320380 Ry
     Harris-Foulkes estimate   =    -538.27320384 Ry
     estimated scf accuracy    <       0.00000016 Ry

     iteration #  7     ecut=    30.00 Ry     beta=0.20
     Davidson diagonalization with overlap
     ethr =  2.14E-10,  avg # of iterations =  1.5
 --- enter write_ns ---
 LDA+U parameters:
U( 1)     =  0.00000000
alpha( 1) =  0.00000000
U( 2)     =  0.00000000
alpha( 2) =  0.00000000
U( 3)     =  0.00000000
alpha( 3) =  0.15000000
U( 4)     =  0.00000000
alpha( 4) =  0.00000000
atom    1   Tr[ns(na)] =   8.02396
    eigenvalues: 
  0.596  0.597  0.938  0.941  0.941
    eigenvectors:
  0.000  0.000  0.991  0.000  0.008
  0.102  0.553  0.002  0.150  0.193
  0.553  0.102  0.001  0.195  0.149
  0.173  0.172  0.003  0.137  0.515
  0.172  0.174  0.002  0.517  0.135
    occupations:
  0.938  0.000  0.000  0.000  0.000
  0.000  0.715  0.000 -0.060  0.152
  0.000  0.000  0.715  0.152  0.060
  0.000 -0.060  0.152  0.822  0.000
  0.000  0.152  0.060  0.000  0.822
atom    2   Tr[ns(na)] =   8.02332
    eigenvalues: 
  0.595  0.596  0.938  0.941  0.941
    eigenvectors:
  0.000  0.000  0.993  0.000  0.007
  0.234  0.421  0.002  0.034  0.309
  0.421  0.234  0.001  0.311  0.034
  0.321  0.024  0.000  0.653  0.002
  0.024  0.321  0.005  0.002  0.649
    occupations:
  0.938  0.000  0.000  0.000  0.000
  0.000  0.715  0.000  0.060  0.153
  0.000  0.000  0.715  0.153 -0.060
  0.000  0.060  0.153  0.822  0.000
  0.000  0.153 -0.060  0.000  0.822
atom    3   Tr[ns(na)] =   3.80455
    eigenvalues: 
  0.356  0.356  0.384  0.403  0.403
    eigenvectors:
  0.000  0.000  1.000  0.000  0.000
  0.692  0.230  0.000  0.014  0.065
  0.230  0.691  0.000  0.065  0.014
  0.020  0.058  0.000  0.754  0.168
  0.058  0.020  0.000  0.168  0.754
    occupations:
  0.384  0.000  0.000  0.000  0.000
  0.000  0.359  0.000  0.000  0.013
  0.000  0.000  0.359  0.013  0.000
  0.000  0.000  0.013  0.400  0.000
  0.000  0.013  0.000  0.000  0.400
atom    4   Tr[ns(na)] =   3.80451
    eigenvalues: 
  0.356  0.356  0.384  0.403  0.403
    eigenvectors:
  0.000  0.000  1.000  0.000  0.000
  0.715  0.205  0.000  0.019  0.061
  0.205  0.716  0.000  0.059  0.020
  0.019  0.061  0.000  0.687  0.234
  0.062  0.018  0.000  0.234  0.686
    occupations:
  0.384  0.000  0.000  0.000  0.000
  0.000  0.359  0.000  0.000  0.013
  0.000  0.000  0.359  0.013  0.000
  0.000  0.000  0.013  0.400  0.000
  0.000  0.013  0.000  0.000  0.400
atom    5   Tr[ns(na)] =   5.42484
    eigenvalues: 
  0.844  0.928  0.940
    eigenvectors:
  0.341  0.000  0.659
  0.495  0.250  0.255
  0.164  0.750  0.086
    occupations:
  0.907 -0.039  0.023
 -0.039  0.890  0.022
  0.023  0.022  0.915
atom    6   Tr[ns(na)] =   5.43419
    eigenvalues: 
  0.847  0.929  0.941
    eigenvectors:
  0.340  0.000  0.660
  0.494  0.251  0.255
  0.166  0.749  0.085
    occupations:
  0.909  0.039  0.022
  0.039  0.891 -0.022
  0.022 -0.022  0.917
atom    7   Tr[ns(na)] =   5.43419
    eigenvalues: 
  0.847  0.929  0.941
    eigenvectors:
  0.340  0.000  0.660
  0.000  1.000  0.000
  0.660  0.000  0.340
    occupations:
  0.909  0.000 -0.045
  0.000  0.929  0.000
 -0.045  0.000  0.879
atom    8   Tr[ns(na)] =   5.43378
    eigenvalues: 
  0.846  0.929  0.941
    eigenvectors:
  0.340  0.000  0.660
  0.496  0.250  0.255
  0.164  0.750  0.086
    occupations:
  0.909 -0.039  0.022
 -0.039  0.891  0.022
  0.022  0.022  0.917
atom    9   Tr[ns(na)] =   5.43426
    eigenvalues: 
  0.847  0.929  0.941
    eigenvectors:
  0.340  0.000  0.660
  0.495  0.251  0.255
  0.165  0.749  0.085
    occupations:
  0.909  0.039  0.022
  0.039  0.891 -0.022
  0.022 -0.022  0.917
atom   10   Tr[ns(na)] =   5.43426
    eigenvalues: 
  0.847  0.929  0.941
    eigenvectors:
  0.340  0.000  0.660
  0.000  1.000  0.000
  0.660  0.000  0.340
    occupations:
  0.909  0.000 -0.045
  0.000  0.929  0.000
 -0.045  0.000  0.879
N of occupied +U levels =  56.2518524
 --- exit write_ns ---
 --- in v_hubbard ---
Hubbard energy    0.0598
 -------

     total cpu time spent up to now is      256.3 secs

     total energy              =    -538.27320380 Ry
     Harris-Foulkes estimate   =    -538.27320381 Ry
     estimated scf accuracy    <       0.00000004 Ry

     iteration #  8     ecut=    30.00 Ry     beta=0.20
     Davidson diagonalization with overlap
     ethr =  5.65E-11,  avg # of iterations =  2.0
 --- enter write_ns ---
 LDA+U parameters:
U( 1)     =  0.00000000
alpha( 1) =  0.00000000
U( 2)     =  0.00000000
alpha( 2) =  0.00000000
U( 3)     =  0.00000000
alpha( 3) =  0.15000000
U( 4)     =  0.00000000
alpha( 4) =  0.00000000
atom    1   Tr[ns(na)] =   8.02394
    eigenvalues: 
  0.596  0.597  0.938  0.941  0.941
    eigenvectors:
  0.000  0.000  0.992  0.000  0.008
  0.102  0.553  0.002  0.152  0.191
  0.553  0.102  0.001  0.193  0.151
  0.173  0.172  0.003  0.134  0.518
  0.172  0.174  0.002  0.521  0.131
    occupations:
  0.938  0.000  0.000  0.000  0.000
  0.000  0.715  0.000 -0.060  0.152
  0.000  0.000  0.715  0.152  0.060
  0.000 -0.060  0.152  0.822  0.000
  0.000  0.152  0.060  0.000  0.822
atom    2   Tr[ns(na)] =   8.02332
    eigenvalues: 
  0.595  0.596  0.938  0.941  0.941
    eigenvectors:
  0.000  0.000  0.993  0.000  0.006
  0.234  0.421  0.002  0.033  0.310
  0.421  0.234  0.001  0.312  0.032
  0.321  0.024  0.000  0.652  0.002
  0.024  0.321  0.004  0.002  0.648
    occupations:
  0.938  0.000  0.000  0.000  0.000
  0.000  0.715  0.000  0.060  0.153
  0.000  0.000  0.715  0.153 -0.060
  0.000  0.060  0.153  0.822  0.000
  0.000  0.153 -0.060  0.000  0.822
atom    3   Tr[ns(na)] =   3.80461
    eigenvalues: 
  0.356  0.356  0.384  0.403  0.403
    eigenvectors:
  0.000  0.000  1.000  0.000  0.000
  0.691  0.230  0.000  0.014  0.065
  0.230  0.691  0.000  0.065  0.014
  0.020  0.058  0.000  0.755  0.166
  0.058  0.020  0.000  0.166  0.755
    occupations:
  0.384  0.000  0.000  0.000  0.000
  0.000  0.359  0.000  0.000  0.013
  0.000  0.000  0.359  0.013  0.000
  0.000  0.000  0.013  0.400  0.000
  0.000  0.013  0.000  0.000  0.400
atom    4   Tr[ns(na)] =   3.80457
    eigenvalues: 
  0.356  0.356  0.384  0.403  0.403
    eigenvectors:
  0.000  0.000  1.000  0.000  0.000
  0.714  0.206  0.000  0.019  0.061
  0.206  0.715  0.000  0.059  0.020
  0.019  0.061  0.000  0.688  0.233
  0.062  0.018  0.000  0.234  0.686
    occupations:
  0.384  0.000  0.000  0.000  0.000
  0.000  0.359  0.000  0.000  0.013
  0.000  0.000  0.359  0.013  0.000
  0.000  0.000  0.013  0.400  0.000
  0.000  0.013  0.000  0.000  0.400
atom    5   Tr[ns(na)] =   5.42483
    eigenvalues: 
  0.844  0.928  0.940
    eigenvectors:
  0.341  0.000  0.659
  0.495  0.250  0.255
  0.164  0.750  0.086
    occupations:
  0.907 -0.039  0.023
 -0.039  0.890  0.022
  0.023  0.022  0.915
atom    6   Tr[ns(na)] =   5.43417
    eigenvalues: 
  0.847  0.929  0.941
    eigenvectors:
  0.340  0.000  0.660
  0.494  0.251  0.255
  0.166  0.749  0.085
    occupations:
  0.909  0.039  0.022
  0.039  0.891 -0.022
  0.022 -0.022  0.917
atom    7   Tr[ns(na)] =   5.43417
    eigenvalues: 
  0.847  0.929  0.941
    eigenvectors:
  0.340  0.000  0.660
  0.000  1.000  0.000
  0.660  0.000  0.340
    occupations:
  0.909  0.000 -0.045
  0.000  0.929  0.000
 -0.045  0.000  0.879
atom    8   Tr[ns(na)] =   5.43376
    eigenvalues: 
  0.846  0.929  0.941
    eigenvectors:
  0.340  0.000  0.660
  0.496  0.250  0.255
  0.164  0.750  0.086
    occupations:
  0.909 -0.039  0.022
 -0.039  0.891  0.022
  0.022  0.022  0.917
atom    9   Tr[ns(na)] =   5.43425
    eigenvalues: 
  0.847  0.929  0.941
    eigenvectors:
  0.340  0.000  0.660
  0.495  0.251  0.255
  0.165  0.749  0.085
    occupations:
  0.909  0.039  0.022
  0.039  0.891 -0.022
  0.022 -0.022  0.917
atom   10   Tr[ns(na)] =   5.43425
    eigenvalues: 
  0.847  0.929  0.941
    eigenvectors:
  0.340  0.000  0.660
  0.000  1.000  0.000
  0.660  0.000  0.340
    occupations:
  0.909  0.000 -0.045
  0.000  0.929  0.000
 -0.045  0.000  0.879
N of occupied +U levels =  56.2518883
 --- exit write_ns ---
 --- in v_hubbard ---
Hubbard energy    0.0598
 -------

     total cpu time spent up to now is      287.5 secs

     End of self-consistent calculation

          k = 0.0000 0.0000 0.0000 (  2175 PWs)   bands (ev):

   -19.7898 -19.6161  -6.5366  -5.8388  -5.8009  -5.7913  -5.7871  -5.4684
    -3.7391  -3.2525  -3.1786  -3.1761  -3.0135  -3.0125   5.2280   6.9522
     6.9656   7.5448   7.5617   7.7469   7.8474   7.8564   7.9140   9.3276
     9.6401   9.6536   9.8969   9.9461   9.9528  10.4937  10.4981  10.6811
    10.6814  10.7075  10.8306  11.5264  11.5287  12.2004  12.3166  12.3193
    14.7906  14.7945  15.4330  15.4354  16.1990  16.7889

     occupation numbers 
     0.0313   0.0313   0.0313   0.0313   0.0313   0.0313   0.0313   0.0313
     0.0313   0.0313   0.0313   0.0313   0.0313   0.0313   0.0313   0.0313
     0.0313   0.0313   0.0313   0.0313   0.0313   0.0313   0.0313   0.0313
     0.0313   0.0313   0.0312   0.0312   0.0312   0.0312   0.0312   0.0312
     0.0312   0.0312   0.0312   0.0309   0.0309   0.0149   0.0101   0.0100
     0.0000   0.0000   0.0000   0.0000   0.0000   0.0000

          k =-0.2471-0.1427 0.1027 (  2181 PWs)   bands (ev):

   -19.7613 -19.6387  -6.7159  -6.2735  -5.9167  -5.8238  -5.5912  -5.4576
    -3.5587  -3.3694  -2.9114  -2.8886  -2.8263  -2.7443   5.5912   6.9144
     7.0545   7.0738   7.3744   7.5471   7.6047   7.8493   7.8975   8.6465
     8.7404   9.3759   9.6964   9.8247   9.8806  10.0583  10.4052  10.4189
    11.0553  11.0861  11.1698  11.9013  11.9530  12.0150  12.3765  12.4338
    14.3368  14.3434  15.8225  16.0763  16.9764  17.2716

     occupation numbers 
     0.0625   0.0625   0.0625   0.0625   0.0625   0.0625   0.0625   0.0625
     0.0625   0.0625   0.0625   0.0625   0.0625   0.0625   0.0625   0.0625
     0.0625   0.0625   0.0625   0.0625   0.0625   0.0625   0.0625   0.0625
     0.0625   0.0625   0.0625   0.0625   0.0625   0.0625   0.0625   0.0625
     0.0625   0.0625   0.0625   0.0523   0.0493   0.0451   0.0158   0.0121
     0.0000   0.0000   0.0000   0.0000   0.0000   0.0000

          k = 0.4942 0.2853-0.2053 (  2202 PWs)   bands (ev):

   -19.6980 -19.6960  -6.7228  -6.6947  -5.9475  -5.9247  -5.5085  -5.4883
    -3.3613  -3.3548  -2.7714  -2.7686  -2.4983  -2.4922   6.1134   6.1441
     7.2460   7.2710   7.3216   7.3354   7.6904   7.7107   8.0035   8.0389
     8.2183   8.2581   9.5647   9.5755   9.8977   9.9125  10.3112  10.3223
    11.4932  11.4953  11.5726  11.5763  11.7381  11.7437  13.3147  13.3461
    13.4039  13.4301  16.8417  16.8450  17.1378  17.1414

     occupation numbers 
     0.0313   0.0313   0.0313   0.0313   0.0313   0.0313   0.0313   0.0313
     0.0313   0.0313   0.0313   0.0313   0.0313   0.0313   0.0313   0.0313
     0.0313   0.0313   0.0313   0.0313   0.0313   0.0313   0.0313   0.0313
     0.0313   0.0313   0.0313   0.0313   0.0312   0.0312   0.0312   0.0312
     0.0310   0.0310   0.0307   0.0307   0.0293   0.0293   0.0000   0.0000
     0.0000   0.0000   0.0000   0.0000   0.0000   0.0000

          k =-0.2471 0.1427 0.2053 (  2195 PWs)   bands (ev):

   -19.7571 -19.6416  -6.8303  -6.2093  -6.0405  -5.8315  -5.6451  -5.4199
    -3.3861  -3.2459  -3.0791  -2.8680  -2.7918  -2.5452   5.6127   6.8971
     6.9500   7.1392   7.2790   7.5089   7.5151   7.8995   7.9052   8.7115
     8.9468   8.9510   9.3174   9.8348  10.0208  10.1255  10.2238  10.3187
    10.7059  11.4150  11.4412  11.5341  11.9516  12.0176  12.1911  12.7599
    13.6582  14.8055  15.9980  16.1990  17.0384  17.5407

     occupation numbers 
     0.0625   0.0625   0.0625   0.0625   0.0625   0.0625   0.0625   0.0625
     0.0625   0.0625   0.0625   0.0625   0.0625   0.0625   0.0625   0.0625
     0.0625   0.0625   0.0625   0.0625   0.0625   0.0625   0.0625   0.0625
     0.0625   0.0625   0.0625   0.0625   0.0625   0.0625   0.0625   0.0625
     0.0625   0.0623   0.0622   0.0617   0.0494   0.0449   0.0307   0.0014
     0.0000   0.0000   0.0000   0.0000   0.0000   0.0000

          k = 0.4942 0.5706-0.1027 (  2198 PWs)   bands (ev):

   -19.7166 -19.6758  -6.9296  -6.6345  -6.1036  -5.8949  -5.4966  -5.3434
    -3.2817  -3.2354  -2.8618  -2.6899  -2.5117  -2.3682   5.9404   6.3288
     6.9078   7.0563   7.2580   7.3680   7.6035   7.8456   7.9776   8.1110
     8.4055   8.9384   9.2092   9.3897   9.6922   9.8535  10.0055  10.3865
    11.1204  11.5633  11.6502  11.7220  11.8530  11.8795  12.3557  12.7606
    13.4507  14.3816  16.9100  17.1209  17.3173  18.0222

     occupation numbers 
     0.0625   0.0625   0.0625   0.0625   0.0625   0.0625   0.0625   0.0625
     0.0625   0.0625   0.0625   0.0625   0.0625   0.0625   0.0625   0.0625
     0.0625   0.0625   0.0625   0.0625   0.0625   0.0625   0.0625   0.0625
     0.0625   0.0625   0.0625   0.0625   0.0625   0.0625   0.0625   0.0625
     0.0625   0.0615   0.0605   0.0591   0.0547   0.0534   0.0173   0.0014
     0.0000   0.0000   0.0000   0.0000   0.0000   0.0000

          k = 0.2471 0.4280 0.0000 (  2203 PWs)   bands (ev):

   -19.7255 -19.6681  -6.8390  -6.6112  -6.0554  -5.9478  -5.4061  -5.3474
    -3.4851  -3.2772  -2.7829  -2.7003  -2.5530  -2.5390   5.9393   6.3560
     7.1264   7.1636   7.2552   7.3466   7.5086   7.7525   7.8629   8.2140
     8.4495   8.9816   9.4661   9.5100   9.8004   9.8249  10.0974  10.3926
    11.4192  11.4300  11.4593  11.6802  11.6909  11.9767  12.3049  13.3419
    13.4137  14.1821  16.4440  16.9970  17.4242  17.9333

     occupation numbers 
     0.0625   0.0625   0.0625   0.0625   0.0625   0.0625   0.0625   0.0625
     0.0625   0.0625   0.0625   0.0625   0.0625   0.0625   0.0625   0.0625
     0.0625   0.0625   0.0625   0.0625   0.0625   0.0625   0.0625   0.0625
     0.0625   0.0625   0.0625   0.0625   0.0625   0.0625   0.0625   0.0625
     0.0622   0.0622   0.0621   0.0600   0.0598   0.0477   0.0211   0.0000
     0.0000   0.0000   0.0000   0.0000   0.0000   0.0000

          k = 0.4942-0.2853-0.4107 (  2202 PWs)   bands (ev):

   -19.7240 -19.6668  -7.1373  -6.4383  -6.2152  -5.9668  -5.5301  -5.2467
    -3.1724  -3.1122  -3.0230  -2.6337  -2.4646  -2.2060   5.8323   6.3758
     6.4772   6.9450   7.1702   7.2759   7.9078   7.9352   8.1847   8.3707
     8.6152   8.6330   8.6831   9.4688   9.7090  10.0668  10.0960  10.4618
    10.6699  11.3152  11.5880  11.7733  11.8796  11.9972  12.0861  12.4764
    13.3508  14.8175  17.0454  17.2711  17.5240  17.6110

     occupation numbers 
     0.0313   0.0313   0.0313   0.0313   0.0313   0.0313   0.0313   0.0313
     0.0313   0.0313   0.0313   0.0313   0.0313   0.0313   0.0313   0.0313
     0.0313   0.0313   0.0313   0.0313   0.0313   0.0313   0.0313   0.0313
     0.0313   0.0313   0.0313   0.0313   0.0313   0.0312   0.0312   0.0312
     0.0312   0.0312   0.0306   0.0288   0.0267   0.0232   0.0198   0.0049
     0.0000   0.0000   0.0000   0.0000   0.0000   0.0000

          k = 0.0000 0.0000 0.3080 (  2187 PWs)   bands (ev):

   -19.7610 -19.6384  -6.6037  -5.9708  -5.9130  -5.8928  -5.8226  -5.8070
    -3.1807  -3.0856  -3.0820  -2.9545  -2.8812  -2.8782   5.6446   7.0486
     7.0620   7.1765   7.4652   7.4827   7.5526   7.8788   7.8855   8.8888
     8.8973   9.4625   9.4720   9.6844   9.7006   9.9059  10.1585  10.1734
    11.1718  11.1728  11.2375  11.9137  11.9149  12.0275  12.3558  12.3587
    14.2954  14.2992  15.9149  15.9178  16.8825  17.4873

     occupation numbers 
     0.0625   0.0625   0.0625   0.0625   0.0625   0.0625   0.0625   0.0625
     0.0625   0.0625   0.0625   0.0625   0.0625   0.0625   0.0625   0.0625
     0.0625   0.0625   0.0625   0.0625   0.0625   0.0625   0.0625   0.0625
     0.0625   0.0625   0.0625   0.0625   0.0625   0.0625   0.0625   0.0625
     0.0625   0.0625   0.0625   0.0516   0.0515   0.0442   0.0173   0.0170
     0.0000   0.0000   0.0000   0.0000   0.0000   0.0000

          k = 0.7412 0.4280 0.0000 (  2204 PWs)   bands (ev):

   -19.7255 -19.6677  -6.7177  -6.5885  -6.1259  -5.8103  -5.6496  -5.5284
    -3.1493  -3.0708  -3.0311  -2.6595  -2.6382  -2.5690   5.9620   6.5500
     7.1292   7.2347   7.2700   7.3780   7.4820   7.7033   8.0393   8.1843
     8.4924   8.8682   9.4990   9.5165   9.6430   9.7162   9.8885  10.2518
    11.4196  11.4342  11.5299  11.7121  11.7398  11.9027  12.3140  13.2690
    13.3322  14.2004  16.6961  16.7288  17.5962  17.8012

     occupation numbers 
     0.0625   0.0625   0.0625   0.0625   0.0625   0.0625   0.0625   0.0625
     0.0625   0.0625   0.0625   0.0625   0.0625   0.0625   0.0625   0.0625
     0.0625   0.0625   0.0625   0.0625   0.0625   0.0625   0.0625   0.0625
     0.0625   0.0625   0.0625   0.0625   0.0625   0.0625   0.0625   0.0625
     0.0622   0.0622   0.0618   0.0593   0.0586   0.0522   0.0204   0.0000
     0.0000   0.0000   0.0000   0.0000   0.0000   0.0000

          k = 0.4942 0.2853 0.1027 (  2211 PWs)   bands (ev):

   -19.7154 -19.6751  -6.9615  -6.5277  -6.3065  -5.6718  -5.6007  -5.3330
    -3.2962  -3.1505  -3.0098  -2.5910  -2.5454  -2.3653   5.9886   6.2773
     6.8824   7.0562   7.2635   7.3256   7.6116   7.9108   8.0150   8.0738
     8.4261   9.0745   9.1908   9.4375   9.5813   9.6990  10.0521  10.4198
    11.1361  11.5971  11.7235  11.7301  11.7907  11.8100  12.3094  12.7784
    13.4900  14.3662  16.8921  16.9400  17.5889  17.9357

     occupation numbers 
     0.0625   0.0625   0.0625   0.0625   0.0625   0.0625   0.0625   0.0625
     0.0625   0.0625   0.0625   0.0625   0.0625   0.0625   0.0625   0.0625
     0.0625   0.0625   0.0625   0.0625   0.0625   0.0625   0.0625   0.0625
     0.0625   0.0625   0.0625   0.0625   0.0625   0.0625   0.0625   0.0625
     0.0625   0.0612   0.0590   0.0589   0.0571   0.0564   0.0208   0.0012
     0.0000   0.0000   0.0000   0.0000   0.0000   0.0000

          k = 0.7412-0.4280-0.3080 (  2210 PWs)   bands (ev):

   -19.7164 -19.6755  -6.8811  -6.4392  -6.2802  -5.8021  -5.7368  -5.4443
    -3.0526  -3.0318  -2.9504  -2.7117  -2.6034  -2.4112   6.0275   6.4433
     6.9547   7.0338   7.2962   7.2985   7.6433   7.9361   8.0555   8.1103
     8.4138   9.0323   9.0666   9.5549   9.5810   9.6243   9.6960  10.2429
    11.1907  11.6206  11.7091  11.7215  11.8353  11.8755  12.2654  12.7256
    13.4439  14.3325  17.0661  17.0732  17.5583  17.9097

     occupation numbers 
     0.0625   0.0625   0.0625   0.0625   0.0625   0.0625   0.0625   0.0625
     0.0625   0.0625   0.0625   0.0625   0.0625   0.0625   0.0625   0.0625
     0.0625   0.0625   0.0625   0.0625   0.0625   0.0625   0.0625   0.0625
     0.0625   0.0625   0.0625   0.0625   0.0625   0.0625   0.0625   0.0625
     0.0625   0.0609   0.0594   0.0591   0.0554   0.0536   0.0243   0.0019
     0.0000   0.0000   0.0000   0.0000   0.0000   0.0000

          k = 0.4942-0.5706-0.2053 (  2206 PWs)   bands (ev):

   -19.6949 -19.6944  -6.8715  -6.8521  -6.0423  -6.0095  -5.4076  -5.3883
    -3.1370  -3.1365  -2.7989  -2.7938  -2.3700  -2.3657   6.1227   6.1519
     7.0404   7.0533   7.1735   7.1821   7.4559   7.4753   8.2322   8.2759
     8.8294   8.8517   9.0978   9.1141   9.5829   9.6000  10.1285  10.1407
    11.4040  11.4046  11.6058  11.6073  11.8752  11.8807  12.3399  12.3422
    14.0249  14.0347  17.4356  17.4380  17.8711  17.8758

     occupation numbers 
     0.0625   0.0625   0.0625   0.0625   0.0625   0.0625   0.0625   0.0625
     0.0625   0.0625   0.0625   0.0625   0.0625   0.0625   0.0625   0.0625
     0.0625   0.0625   0.0625   0.0625   0.0625   0.0625   0.0625   0.0625
     0.0625   0.0625   0.0625   0.0625   0.0625   0.0625   0.0625   0.0625
     0.0623   0.0623   0.0611   0.0611   0.0536   0.0533   0.0184   0.0183
     0.0000   0.0000   0.0000   0.0000   0.0000   0.0000

          k = 0.0000 0.0000-0.6160 (  2186 PWs)   bands (ev):

   -19.6975 -19.6955  -6.5088  -6.4790  -5.9457  -5.9071  -5.9049  -5.9034
    -2.8756  -2.8681  -2.8671  -2.8660  -2.6999  -2.6953   6.3341   6.3669
     7.2526   7.2587   7.2700   7.2971   7.8766   7.9133   8.1298   8.1309
     8.1640   8.1651   9.6723   9.6737   9.6863   9.6944   9.7367   9.7627
    11.6240  11.6283  11.6718  11.6727  11.6757  11.6796  13.2560  13.2590
    13.2839  13.2885  17.1219  17.1233  17.1247  17.1280

     occupation numbers 
     0.0313   0.0313   0.0313   0.0313   0.0313   0.0313   0.0313   0.0313
     0.0313   0.0313   0.0313   0.0313   0.0313   0.0313   0.0313   0.0313
     0.0313   0.0313   0.0313   0.0313   0.0313   0.0313   0.0313   0.0313
     0.0313   0.0313   0.0313   0.0313   0.0313   0.0313   0.0313   0.0313
     0.0304   0.0304   0.0301   0.0301   0.0300   0.0300   0.0000   0.0000
     0.0000   0.0000   0.0000   0.0000   0.0000   0.0000

          k =-0.2471 0.1427-0.1027 (  2181 PWs)   bands (ev):

   -19.7613 -19.6387  -6.7156  -6.2733  -5.9142  -5.8284  -5.5921  -5.4545
    -3.5605  -3.3686  -2.9121  -2.8879  -2.8252  -2.7452   5.5923   6.9175
     7.0599   7.0674   7.3706   7.5381   7.6138   7.8552   7.8924   8.6424
     8.7475   9.3711   9.6875   9.8356   9.8786  10.0627  10.4025  10.4195
    11.0550  11.0871  11.1691  11.9006  11.9530  12.0147  12.3742  12.4362
    14.3343  14.3458  15.8209  16.0788  16.9771  17.2734

     occupation numbers 
     0.0625   0.0625   0.0625   0.0625   0.0625   0.0625   0.0625   0.0625
     0.0625   0.0625   0.0625   0.0625   0.0625   0.0625   0.0625   0.0625
     0.0625   0.0625   0.0625   0.0625   0.0625   0.0625   0.0625   0.0625
     0.0625   0.0625   0.0625   0.0625   0.0625   0.0625   0.0625   0.0625
     0.0625   0.0625   0.0625   0.0523   0.0493   0.0451   0.0160   0.0120
     0.0000   0.0000   0.0000   0.0000   0.0000   0.0000

          k = 0.0000 0.2853 0.1027 (  2181 PWs)   bands (ev):

   -19.7613 -19.6387  -6.7158  -6.2735  -5.9162  -5.8242  -5.5916  -5.4572
    -3.5586  -3.3695  -2.9115  -2.8884  -2.8263  -2.7443   5.5912   6.9145
     7.0544   7.0741   7.3742   7.5466   7.6050   7.8501   7.8970   8.6467
     8.7401   9.3758   9.6967   9.8247   9.8804  10.0584  10.4064  10.4176
    11.0553  11.0862  11.1698  11.9013  11.9530  12.0150  12.3765  12.4338
    14.3366  14.3436  15.8225  16.0763  16.9764  17.2715

     occupation numbers 
     0.0625   0.0625   0.0625   0.0625   0.0625   0.0625   0.0625   0.0625
     0.0625   0.0625   0.0625   0.0625   0.0625   0.0625   0.0625   0.0625
     0.0625   0.0625   0.0625   0.0625   0.0625   0.0625   0.0625   0.0625
     0.0625   0.0625   0.0625   0.0625   0.0625   0.0625   0.0625   0.0625
     0.0625   0.0625   0.0625   0.0523   0.0493   0.0451   0.0158   0.0121
     0.0000   0.0000   0.0000   0.0000   0.0000   0.0000

          k = 0.4942-0.2853 0.2053 (  2202 PWs)   bands (ev):

   -19.6980 -19.6960  -6.7220  -6.6950  -5.9476  -5.9258  -5.5082  -5.4872
    -3.3602  -3.3574  -2.7718  -2.7674  -2.4983  -2.4929   6.1131   6.1481
     7.2488   7.2683   7.3171   7.3456   7.6790   7.7040   8.0105   8.0471
     8.2204   8.2499   9.5618   9.5674   9.8993   9.9288  10.3058  10.3210
    11.4938  11.4957  11.5730  11.5767  11.7372  11.7420  13.3141  13.3428
    13.4039  13.4338  16.8403  16.8453  17.1399  17.1441

     occupation numbers 
     0.0313   0.0313   0.0313   0.0313   0.0313   0.0313   0.0313   0.0313
     0.0313   0.0313   0.0313   0.0313   0.0313   0.0313   0.0313   0.0313
     0.0313   0.0313   0.0313   0.0313   0.0313   0.0313   0.0313   0.0313
     0.0313   0.0313   0.0313   0.0313   0.0312   0.0312   0.0312   0.0312
     0.0310   0.0310   0.0307   0.0307   0.0294   0.0293   0.0000   0.0000
     0.0000   0.0000   0.0000   0.0000   0.0000   0.0000

          k = 0.0000-0.5706-0.2053 (  2202 PWs)   bands (ev):

   -19.6980 -19.6960  -6.7219  -6.6958  -5.9453  -5.9268  -5.5112  -5.4856
    -3.3586  -3.3575  -2.7731  -2.7670  -2.4980  -2.4926   6.1134   6.1441
     7.2549   7.2635   7.3117   7.3437   7.6801   7.7212   8.0109   8.0315
     8.2301   8.2462   9.5670   9.5736   9.8974   9.9127  10.3113  10.3221
    11.4933  11.4952  11.5723  11.5766  11.7395  11.7423  13.3170  13.3439
    13.4012  13.4327  16.8389  16.8478  17.1365  17.1427

     occupation numbers 
     0.0313   0.0313   0.0313   0.0313   0.0313   0.0313   0.0313   0.0313
     0.0313   0.0313   0.0313   0.0313   0.0313   0.0313   0.0313   0.0313
     0.0313   0.0313   0.0313   0.0313   0.0313   0.0313   0.0313   0.0313
     0.0313   0.0313   0.0313   0.0313   0.0312   0.0312   0.0312   0.0312
     0.0310   0.0310   0.0307   0.0307   0.0293   0.0293   0.0000   0.0000
     0.0000   0.0000   0.0000   0.0000   0.0000   0.0000

          k =-0.2471-0.1427-0.2053 (  2195 PWs)   bands (ev):

   -19.7560 -19.6408  -6.8436  -6.2141  -6.0510  -5.8007  -5.6325  -5.4341
    -3.3867  -3.2459  -3.0795  -2.8716  -2.7938  -2.5477   5.6275   6.8731
     6.9601   7.1553   7.2754   7.5091   7.5299   7.8920   7.9117   8.7151
     8.9278   8.9414   9.3312   9.8203  10.0174  10.1280  10.2326  10.3324
    10.7038  11.4112  11.4369  11.5273  11.9516  12.0190  12.1929  12.7548
    13.6573  14.8084  15.9973  16.2002  17.0422  17.5419

     occupation numbers 
     0.0625   0.0625   0.0625   0.0625   0.0625   0.0625   0.0625   0.0625
     0.0625   0.0625   0.0625   0.0625   0.0625   0.0625   0.0625   0.0625
     0.0625   0.0625   0.0625   0.0625   0.0625   0.0625   0.0625   0.0625
     0.0625   0.0625   0.0625   0.0625   0.0625   0.0625   0.0625   0.0625
     0.0625   0.0623   0.0622   0.0618   0.0494   0.0448   0.0305   0.0015
     0.0000   0.0000   0.0000   0.0000   0.0000   0.0000

          k = 0.0000-0.2853 0.2053 (  2195 PWs)   bands (ev):

   -19.7560 -19.6408  -6.8436  -6.2143  -6.0508  -5.8008  -5.6326  -5.4341
    -3.3867  -3.2459  -3.0796  -2.8715  -2.7938  -2.5477   5.6275   6.8732
     6.9601   7.1553   7.2755   7.5072   7.5317   7.8917   7.9120   8.7150
     8.9302   8.9391   9.3312   9.8202  10.0174  10.1280  10.2326  10.3324
    10.7038  11.4112  11.4369  11.5273  11.9516  12.0190  12.1929  12.7548
    13.6573  14.8084  15.9973  16.2002  17.0422  17.5418

     occupation numbers 
     0.0625   0.0625   0.0625   0.0625   0.0625   0.0625   0.0625   0.0625
     0.0625   0.0625   0.0625   0.0625   0.0625   0.0625   0.0625   0.0625
     0.0625   0.0625   0.0625   0.0625   0.0625   0.0625   0.0625   0.0625
     0.0625   0.0625   0.0625   0.0625   0.0625   0.0625   0.0625   0.0625
     0.0625   0.0623   0.0622   0.0618   0.0494   0.0448   0.0305   0.0015
     0.0000   0.0000   0.0000   0.0000   0.0000   0.0000

          k = 0.4942-0.5706 0.1027 (  2198 PWs)   bands (ev):

   -19.7154 -19.6751  -6.9457  -6.6291  -6.1182  -5.8655  -5.4871  -5.3570
    -3.2838  -3.2360  -2.8596  -2.6930  -2.5137  -2.3716   5.9579   6.3109
     6.9247   7.0652   7.2703   7.3850   7.5908   7.8413   7.9580   8.1359
     8.3853   8.9510   9.1876   9.3793   9.6994   9.8472  10.0018  10.3971
    11.1209  11.5616  11.6514  11.7244  11.8532  11.8733  12.3573  12.7608
    13.4445  14.3844  16.9120  17.1210  17.3187  18.0226

     occupation numbers 
     0.0625   0.0625   0.0625   0.0625   0.0625   0.0625   0.0625   0.0625
     0.0625   0.0625   0.0625   0.0625   0.0625   0.0625   0.0625   0.0625
     0.0625   0.0625   0.0625   0.0625   0.0625   0.0625   0.0625   0.0625
     0.0625   0.0625   0.0625   0.0625   0.0625   0.0625   0.0625   0.0625
     0.0625   0.0615   0.0605   0.0590   0.0546   0.0537   0.0172   0.0014
     0.0000   0.0000   0.0000   0.0000   0.0000   0.0000

          k =-0.7412 0.1427-0.1027 (  2198 PWs)   bands (ev):

   -19.7154 -19.6751  -6.9452  -6.6302  -6.1169  -5.8664  -5.4862  -5.3578
    -3.2830  -3.2361  -2.8594  -2.6941  -2.5130  -2.3720   5.9592   6.3091
     6.9280   7.0650   7.2639   7.3883   7.5902   7.8397   7.9782   8.1119
     8.3922   8.9448   9.1924   9.3807   9.7012   9.8459  10.0020  10.3957
    11.1217  11.5605  11.6507  11.7247  11.8526  11.8744  12.3576  12.7611
    13.4445  14.3846  16.9101  17.1238  17.3181  18.0226

     occupation numbers 
     0.0625   0.0625   0.0625   0.0625   0.0625   0.0625   0.0625   0.0625
     0.0625   0.0625   0.0625   0.0625   0.0625   0.0625   0.0625   0.0625
     0.0625   0.0625   0.0625   0.0625   0.0625   0.0625   0.0625   0.0625
     0.0625   0.0625   0.0625   0.0625   0.0625   0.0625   0.0625   0.0625
     0.0625   0.0615   0.0605   0.0590   0.0547   0.0537   0.0171   0.0014
     0.0000   0.0000   0.0000   0.0000   0.0000   0.0000

          k = 0.2471-0.7133-0.1027 (  2198 PWs)   bands (ev):

   -19.7154 -19.6751  -6.9457  -6.6295  -6.1183  -5.8652  -5.4851  -5.3594
    -3.2829  -3.2359  -2.8600  -2.6927  -2.5131  -2.3724   5.9582   6.3086
     6.9255   7.0683   7.2664   7.3854   7.5897   7.8356   7.9813   8.1160
     8.3905   8.9439   9.1937   9.3848   9.6944   9.8498   9.9999  10.3965
    11.1218  11.5619  11.6499  11.7212  11.8548  11.8756  12.3575  12.7611
    13.4445  14.3846  16.9123  17.1205  17.3180  18.0212

     occupation numbers 
     0.0625   0.0625   0.0625   0.0625   0.0625   0.0625   0.0625   0.0625
     0.0625   0.0625   0.0625   0.0625   0.0625   0.0625   0.0625   0.0625
     0.0625   0.0625   0.0625   0.0625   0.0625   0.0625   0.0625   0.0625
     0.0625   0.0625   0.0625   0.0625   0.0625   0.0625   0.0625   0.0625
     0.0625   0.0615   0.0605   0.0591   0.0546   0.0536   0.0171   0.0014
     0.0000   0.0000   0.0000   0.0000   0.0000   0.0000

          k =-0.7412-0.1427 0.1027 (  2198 PWs)   bands (ev):

   -19.7154 -19.6751  -6.9461  -6.6285  -6.1194  -5.8643  -5.4860  -5.3586
    -3.2837  -3.2358  -2.8602  -2.6917  -2.5137  -2.3721   5.9569   6.3104
     6.9223   7.0685   7.2727   7.3820   7.5901   7.8375   7.9610   8.1398
     8.3838   8.9502   9.1888   9.3832   9.6928   9.8511   9.9996  10.3979
    11.1210  11.5630  11.6507  11.7209  11.8554  11.8744  12.3571  12.7609
    13.4445  14.3844  16.9142  17.1177  17.3185  18.0213

     occupation numbers 
     0.0625   0.0625   0.0625   0.0625   0.0625   0.0625   0.0625   0.0625
     0.0625   0.0625   0.0625   0.0625   0.0625   0.0625   0.0625   0.0625
     0.0625   0.0625   0.0625   0.0625   0.0625   0.0625   0.0625   0.0625
     0.0625   0.0625   0.0625   0.0625   0.0625   0.0625   0.0625   0.0625
     0.0625   0.0615   0.0605   0.0591   0.0545   0.0537   0.0172   0.0014
     0.0000   0.0000   0.0000   0.0000   0.0000   0.0000

          k = 0.2471 0.7133 0.1027 (  2198 PWs)   bands (ev):

   -19.7166 -19.6758  -6.9302  -6.6334  -6.1049  -5.8939  -5.4975  -5.3426
    -3.2825  -3.2354  -2.8619  -2.6889  -2.5123  -2.3678   5.9392   6.3307
     6.9045   7.0565   7.2642   7.3646   7.6041   7.8473   7.9583   8.1337
     8.3989   8.9445   9.2047   9.3885   9.6907   9.8544  10.0053  10.3879
    11.1197  11.5645  11.6510  11.7216  11.8536  11.8783  12.3553  12.7603
    13.4506  14.3814  16.9119  17.1181  17.3179  18.0221

     occupation numbers 
     0.0625   0.0625   0.0625   0.0625   0.0625   0.0625   0.0625   0.0625
     0.0625   0.0625   0.0625   0.0625   0.0625   0.0625   0.0625   0.0625
     0.0625   0.0625   0.0625   0.0625   0.0625   0.0625   0.0625   0.0625
     0.0625   0.0625   0.0625   0.0625   0.0625   0.0625   0.0625   0.0625
     0.0625   0.0615   0.0605   0.0591   0.0546   0.0535   0.0173   0.0014
     0.0000   0.0000   0.0000   0.0000   0.0000   0.0000

          k = 0.2471-0.4280 0.0000 (  2203 PWs)   bands (ev):

   -19.7257 -19.6679  -6.8322  -6.6259  -6.0252  -5.9641  -5.4219  -5.3376
    -3.4873  -3.2773  -2.7861  -2.6936  -2.5514  -2.5419   5.9237   6.3677
     7.1176   7.1655   7.2682   7.3575   7.4930   7.7643   7.8547   8.2280
     8.4647   8.9630   9.4463   9.4982   9.8054   9.8300  10.0965  10.3973
    11.4218  11.4331  11.4604  11.6820  11.6927  11.9714  12.3040  13.3446
    13.4168  14.1770  16.4432  16.9999  17.4274  17.9313

     occupation numbers 
     0.0625   0.0625   0.0625   0.0625   0.0625   0.0625   0.0625   0.0625
     0.0625   0.0625   0.0625   0.0625   0.0625   0.0625   0.0625   0.0625
     0.0625   0.0625   0.0625   0.0625   0.0625   0.0625   0.0625   0.0625
     0.0625   0.0625   0.0625   0.0625   0.0625   0.0625   0.0625   0.0625
     0.0622   0.0622   0.0621   0.0599   0.0597   0.0481   0.0212   0.0000
     0.0000   0.0000   0.0000   0.0000   0.0000   0.0000

          k =-0.4942 0.0000 0.0000 (  2203 PWs)   bands (ev):

   -19.7257 -19.6679  -6.8322  -6.6259  -6.0251  -5.9641  -5.4219  -5.3376
    -3.4873  -3.2773  -2.7861  -2.6936  -2.5511  -2.5422   5.9237   6.3676
     7.1175   7.1664   7.2661   7.3588   7.4930   7.7644   7.8545   8.2280
     8.4647   8.9630   9.4463   9.4982   9.8058   9.8295  10.0966  10.3972
    11.4219  11.4330  11.4604  11.6821  11.6927  11.9714  12.3040  13.3446
    13.4168  14.1770  16.4432  16.9999  17.4274  17.9305

     occupation numbers 
     0.0625   0.0625   0.0625   0.0625   0.0625   0.0625   0.0625   0.0625
     0.0625   0.0625   0.0625   0.0625   0.0625   0.0625   0.0625   0.0625
     0.0625   0.0625   0.0625   0.0625   0.0625   0.0625   0.0625   0.0625
     0.0625   0.0625   0.0625   0.0625   0.0625   0.0625   0.0625   0.0625
     0.0622   0.0622   0.0621   0.0599   0.0597   0.0481   0.0212   0.0000
     0.0000   0.0000   0.0000   0.0000   0.0000   0.0000

          k = 0.4942 0.2853 0.4107 (  2202 PWs)   bands (ev):

   -19.7217 -19.6653  -7.1553  -6.4449  -6.2322  -5.9296  -5.5089  -5.2640
    -3.1734  -3.1134  -3.0234  -2.6399  -2.4681  -2.2109   5.8562   6.3448
     6.4990   6.9548   7.1905   7.2986   7.9179   7.9530   8.1887   8.3376
     8.6077   8.6419   8.6564   9.4371   9.7014  10.0644  10.1058  10.4743
    10.6688  11.3151  11.5859  11.7755  11.8816  11.9905  12.0881  12.4765
    13.3433  14.8205  17.0471  17.2721  17.5276  17.6137

     occupation numbers 
     0.0313   0.0313   0.0313   0.0313   0.0313   0.0313   0.0313   0.0313
     0.0313   0.0313   0.0313   0.0313   0.0313   0.0313   0.0313   0.0313
     0.0313   0.0313   0.0313   0.0313   0.0313   0.0313   0.0313   0.0313
     0.0313   0.0313   0.0313   0.0313   0.0313   0.0312   0.0312   0.0312
     0.0312   0.0312   0.0307   0.0288   0.0266   0.0234   0.0197   0.0049
     0.0000   0.0000   0.0000   0.0000   0.0000   0.0000

          k = 0.0000 0.5706-0.4107 (  2202 PWs)   bands (ev):

   -19.7217 -19.6653  -7.1553  -6.4450  -6.2320  -5.9296  -5.5090  -5.2639
    -3.1734  -3.1134  -3.0234  -2.6399  -2.4681  -2.2109   5.8562   6.3448
     6.4990   6.9548   7.1905   7.2986   7.9166   7.9542   8.1890   8.3372
     8.6077   8.6419   8.6564   9.4372   9.7014  10.0646  10.1056  10.4743
    10.6688  11.3151  11.5858  11.7755  11.8816  11.9905  12.0881  12.4765
    13.3433  14.8205  17.0471  17.2722  17.5276  17.6137

     occupation numbers 
     0.0313   0.0313   0.0313   0.0313   0.0313   0.0313   0.0313   0.0313
     0.0313   0.0313   0.0313   0.0313   0.0313   0.0313   0.0313   0.0313
     0.0313   0.0313   0.0313   0.0313   0.0313   0.0313   0.0313   0.0313
     0.0313   0.0313   0.0313   0.0313   0.0313   0.0312   0.0312   0.0312
     0.0312   0.0312   0.0307   0.0288   0.0266   0.0234   0.0197   0.0049
     0.0000   0.0000   0.0000   0.0000   0.0000   0.0000

          k = 0.7412-0.4280 0.0000 (  2204 PWs)   bands (ev):

   -19.7253 -19.6678  -6.7243  -6.5753  -6.1346  -5.8164  -5.6545  -5.5144
    -3.1473  -3.0711  -3.0310  -2.6639  -2.6406  -2.5654   5.9809   6.5371
     7.1334   7.2351   7.2554   7.3726   7.4984   7.6943   8.0396   8.1692
     8.4777   8.8892   9.5035   9.5370   9.6434   9.7137   9.8894  10.2454
    11.4170  11.4309  11.5287  11.7112  11.7373  11.9060  12.3155  13.2665
    13.3290  14.2053  16.6985  16.7273  17.5941  17.8007

     occupation numbers 
     0.0625   0.0625   0.0625   0.0625   0.0625   0.0625   0.0625   0.0625
     0.0625   0.0625   0.0625   0.0625   0.0625   0.0625   0.0625   0.0625
     0.0625   0.0625   0.0625   0.0625   0.0625   0.0625   0.0625   0.0625
     0.0625   0.0625   0.0625   0.0625   0.0625   0.0625   0.0625   0.0625
     0.0623   0.0622   0.0618   0.0593   0.0587   0.0520   0.0203   0.0000
     0.0000   0.0000   0.0000   0.0000   0.0000   0.0000

          k = 0.0000-0.8559 0.0000 (  2204 PWs)   bands (ev):

   -19.7255 -19.6677  -6.7178  -6.5884  -6.1260  -5.8105  -5.6496  -5.5282
    -3.1493  -3.0708  -3.0311  -2.6594  -2.6383  -2.5690   5.9620   6.5500
     7.1287   7.2359   7.2701   7.3770   7.4820   7.7034   8.0392   8.1845
     8.4924   8.8682   9.4989   9.5165   9.6435   9.7157   9.8887  10.2517
    11.4194  11.4344  11.5299  11.7121  11.7398  11.9027  12.3140  13.2690
    13.3322  14.2004  16.6961  16.7288  17.5963  17.8012

     occupation numbers 
     0.0625   0.0625   0.0625   0.0625   0.0625   0.0625   0.0625   0.0625
     0.0625   0.0625   0.0625   0.0625   0.0625   0.0625   0.0625   0.0625
     0.0625   0.0625   0.0625   0.0625   0.0625   0.0625   0.0625   0.0625
     0.0625   0.0625   0.0625   0.0625   0.0625   0.0625   0.0625   0.0625
     0.0622   0.0622   0.0618   0.0593   0.0586   0.0522   0.0204   0.0000
     0.0000   0.0000   0.0000   0.0000   0.0000   0.0000

          k = 0.4942-0.2853-0.1027 (  2211 PWs)   bands (ev):

   -19.7166 -19.6758  -6.9465  -6.5317  -6.3044  -5.6876  -5.6108  -5.3195
    -3.2959  -3.1503  -3.0094  -2.5881  -2.5453  -2.3611   5.9712   6.2985
     6.8641   7.0471   7.2508   7.3170   7.6187   7.9153   8.0096   8.0805
     8.4379   9.0635   9.2054   9.4329   9.5759   9.7242  10.0558  10.4078
    11.1345  11.5981  11.7263  11.7312  11.7891  11.8105  12.3077  12.7780
    13.4960  14.3631  16.8913  16.9405  17.5896  17.9353

     occupation numbers 
     0.0625   0.0625   0.0625   0.0625   0.0625   0.0625   0.0625   0.0625
     0.0625   0.0625   0.0625   0.0625   0.0625   0.0625   0.0625   0.0625
     0.0625   0.0625   0.0625   0.0625   0.0625   0.0625   0.0625   0.0625
     0.0625   0.0625   0.0625   0.0625   0.0625   0.0625   0.0625   0.0625
     0.0625   0.0612   0.0590   0.0589   0.0572   0.0564   0.0209   0.0012
     0.0000   0.0000   0.0000   0.0000   0.0000   0.0000

          k = 0.0000-0.5706 0.1027 (  2211 PWs)   bands (ev):

   -19.7154 -19.6751  -6.9615  -6.5278  -6.3064  -5.6717  -5.6010  -5.3329
    -3.2962  -3.1505  -3.0098  -2.5909  -2.5455  -2.3652   5.9886   6.2773
     6.8823   7.0563   7.2641   7.3250   7.6115   7.9102   8.0149   8.0753
     8.4254   9.0744   9.1910   9.4376   9.5813   9.6990  10.0521  10.4198
    11.1361  11.5971  11.7235  11.7301  11.7908  11.8099  12.3094  12.7784
    13.4900  14.3662  16.8920  16.9400  17.5889  17.9357

     occupation numbers 
     0.0625   0.0625   0.0625   0.0625   0.0625   0.0625   0.0625   0.0625
     0.0625   0.0625   0.0625   0.0625   0.0625   0.0625   0.0625   0.0625
     0.0625   0.0625   0.0625   0.0625   0.0625   0.0625   0.0625   0.0625
     0.0625   0.0625   0.0625   0.0625   0.0625   0.0625   0.0625   0.0625
     0.0625   0.0612   0.0591   0.0589   0.0571   0.0564   0.0208   0.0012
     0.0000   0.0000   0.0000   0.0000   0.0000   0.0000

          k = 0.7412 0.4280 0.3080 (  2210 PWs)   bands (ev):

   -19.7152 -19.6749  -6.8976  -6.4346  -6.2848  -5.7750  -5.7321  -5.4601
    -3.0536  -3.0310  -2.9486  -2.7154  -2.6055  -2.4151   6.0471   6.4180
     6.9738   7.0440   7.3058   7.3169   7.6314   7.9287   8.0603   8.1104
     8.4016   9.0421   9.0522   9.5457   9.5765   9.6158   9.6958  10.2554
    11.1922  11.6175  11.7114  11.7201  11.8334  11.8751  12.2669  12.7261
    13.4380  14.3356  17.0670  17.0742  17.5571  17.9101

     occupation numbers 
     0.0625   0.0625   0.0625   0.0625   0.0625   0.0625   0.0625   0.0625
     0.0625   0.0625   0.0625   0.0625   0.0625   0.0625   0.0625   0.0625
     0.0625   0.0625   0.0625   0.0625   0.0625   0.0625   0.0625   0.0625
     0.0625   0.0625   0.0625   0.0625   0.0625   0.0625   0.0625   0.0625
     0.0625   0.0610   0.0593   0.0591   0.0555   0.0536   0.0242   0.0019
     0.0000   0.0000   0.0000   0.0000   0.0000   0.0000

          k = 0.0000 0.8559-0.3080 (  2210 PWs)   bands (ev):

   -19.7152 -19.6749  -6.8976  -6.4345  -6.2849  -5.7750  -5.7322  -5.4601
    -3.0536  -3.0310  -2.9487  -2.7154  -2.6055  -2.4151   6.0471   6.4179
     6.9739   7.0439   7.3048   7.3180   7.6314   7.9287   8.0647   8.1052
     8.4024   9.0440   9.0504   9.5456   9.5766   9.6157   9.6960  10.2554
    11.1922  11.6175  11.7111  11.7203  11.8334  11.8751  12.2669  12.7261
    13.4380  14.3356  17.0671  17.0741  17.5571  17.9101

     occupation numbers 
     0.0625   0.0625   0.0625   0.0625   0.0625   0.0625   0.0625   0.0625
     0.0625   0.0625   0.0625   0.0625   0.0625   0.0625   0.0625   0.0625
     0.0625   0.0625   0.0625   0.0625   0.0625   0.0625   0.0625   0.0625
     0.0625   0.0625   0.0625   0.0625   0.0625   0.0625   0.0625   0.0625
     0.0625   0.0610   0.0593   0.0591   0.0555   0.0536   0.0242   0.0019
     0.0000   0.0000   0.0000   0.0000   0.0000   0.0000

          k = 0.2471 0.7133-0.2053 (  2206 PWs)   bands (ev):

   -19.6949 -19.6944  -6.8713  -6.8524  -6.0420  -6.0097  -5.4077  -5.3882
    -3.1370  -3.1365  -2.7990  -2.7938  -2.3695  -2.3662   6.1226   6.1519
     7.0395   7.0543   7.1743   7.1813   7.4556   7.4757   8.2313   8.2769
     8.8295   8.8515   9.0978   9.1142   9.5844   9.5986  10.1290  10.1402
    11.4040  11.4047  11.6061  11.6071  11.8753  11.8806  12.3401  12.3420
    14.0249  14.0347  17.4352  17.4383  17.8729  17.8740

     occupation numbers 
     0.0625   0.0625   0.0625   0.0625   0.0625   0.0625   0.0625   0.0625
     0.0625   0.0625   0.0625   0.0625   0.0625   0.0625   0.0625   0.0625
     0.0625   0.0625   0.0625   0.0625   0.0625   0.0625   0.0625   0.0625
     0.0625   0.0625   0.0625   0.0625   0.0625   0.0625   0.0625   0.0625
     0.0623   0.0623   0.0611   0.0611   0.0536   0.0533   0.0184   0.0183
     0.0000   0.0000   0.0000   0.0000   0.0000   0.0000

          k =-0.7412-0.1427-0.2053 (  2206 PWs)   bands (ev):

   -19.6937 -19.6936  -6.8891  -6.8539  -6.0126  -6.0109  -5.4193  -5.3870
    -3.1389  -3.1368  -2.7951  -2.7937  -2.3795  -2.3656   6.1215   6.1456
     7.0567   7.0602   7.1743   7.2129   7.4743   7.4768   8.2239   8.2592
     8.8234   8.8264   9.1064   9.1085   9.5752   9.5793  10.1431  10.1443
    11.4083  11.4091  11.6060  11.6074  11.8753  11.8756  12.3397  12.3437
    14.0238  14.0337  17.4354  17.4363  17.8740  17.8766

     occupation numbers 
     0.0625   0.0625   0.0625   0.0625   0.0625   0.0625   0.0625   0.0625
     0.0625   0.0625   0.0625   0.0625   0.0625   0.0625   0.0625   0.0625
     0.0625   0.0625   0.0625   0.0625   0.0625   0.0625   0.0625   0.0625
     0.0625   0.0625   0.0625   0.0625   0.0625   0.0625   0.0625   0.0625
     0.0623   0.0623   0.0611   0.0611   0.0536   0.0536   0.0184   0.0181
     0.0000   0.0000   0.0000   0.0000   0.0000   0.0000

     the Fermi energy is    12.1842 ev

!    total energy              =    -538.27320380 Ry
     Harris-Foulkes estimate   =    -538.27320380 Ry
     estimated scf accuracy    <          2.6E-09 Ry

     The total energy is the sum of the following terms:

     one-electron contribution =     -32.88709826 Ry
     hartree contribution      =      83.59648847 Ry
     xc contribution           =    -199.55326815 Ry
     ewald contribution        =    -389.44315552 Ry
     Hubbard energy            =       0.05980770 Ry
     smearing contrib. (-TS)   =      -0.04597804 Ry

     convergence has been achieved in   8 iterations

     init_run     :      6.75s CPU      6.86s WALL (       1 calls)
     electrons    :    277.53s CPU    280.13s WALL (       1 calls)

     Called by init_run:
     wfcinit      :      0.00s CPU      0.00s WALL (       1 calls)
     potinit      :      0.28s CPU      0.30s WALL (       1 calls)

     Called by electrons:
     c_bands      :    220.17s CPU    221.65s WALL (       8 calls)
     sum_band     :     41.85s CPU     42.26s WALL (       8 calls)
     v_of_rho     :      2.25s CPU      2.26s WALL (       9 calls)
     v_h          :      0.11s CPU      0.11s WALL (       9 calls)
     v_xc         :      2.14s CPU      2.15s WALL (       9 calls)
     newd         :     14.46s CPU     14.49s WALL (       9 calls)
     mix_rho      :      0.18s CPU      0.19s WALL (       8 calls)

     Called by c_bands:
     init_us_2    :      2.13s CPU      2.13s WALL (     576 calls)
     cegterg      :    214.25s CPU    215.27s WALL (     288 calls)

     Called by sum_band:
     sum_band:bec :      0.21s CPU      0.22s WALL (     288 calls)
     addusdens    :      9.25s CPU      9.25s WALL (       8 calls)

     Called by *egterg:
     h_psi        :    152.91s CPU    153.59s WALL (    1331 calls)
     s_psi        :      8.85s CPU      8.85s WALL (    1331 calls)
     g_psi        :      0.74s CPU      0.73s WALL (    1043 calls)
     cdiaghg      :     22.13s CPU     22.25s WALL (    1295 calls)
     cegterg:over :     11.65s CPU     11.71s WALL (    1043 calls)
     cegterg:upda :      7.38s CPU      7.40s WALL (    1043 calls)
     cegterg:last :      4.64s CPU      4.77s WALL (     324 calls)

     Called by h_psi:
     h_psi:vloc   :    123.45s CPU    124.03s WALL (    1331 calls)
     h_psi:vnl    :     19.06s CPU     19.15s WALL (    1331 calls)
     add_vuspsi   :      9.07s CPU      9.08s WALL (    1331 calls)
     vhpsi        :     10.04s CPU     10.06s WALL (    1331 calls)

     General routines
     calbec       :     19.98s CPU     20.06s WALL (    3238 calls)
     fft          :      1.59s CPU      1.60s WALL (     139 calls)
     ffts         :      0.04s CPU      0.04s WALL (      17 calls)
     fftw         :    114.91s CPU    115.58s WALL (   83552 calls)
     interpolate  :      0.24s CPU      0.24s WALL (      17 calls)
     davcio       :      0.01s CPU      0.60s WALL (     612 calls)

     Parallel routines
     fft_scatter  :     29.65s CPU     30.10s WALL (   83708 calls)
     Hubbard U routines
     new_ns       :      1.81s CPU      2.07s WALL (       8 calls)
     vhpsi        :     10.04s CPU     10.06s WALL (    1331 calls)

     PWSCF        :  4m44.70s CPU     4m47.58s WALL


   This run was terminated on:   8:24:25  11Nov2012            

=------------------------------------------------------------------------------=
